V -t * -v 1.0a5 -a 0
A -t * -n 1 -p 0 -o 0x7fffffff -c 30 -a 1
A -t * -h 1 -m 1073741823 -s 0
c -t * -i 4 -n yellow
c -t * -i 1 -n red
c -t * -i 2 -n green
c -t * -i 3 -n blue
n -t * -a 4 -s 4 -S UP -v circle -c black -i black
n -t * -a 0 -s 0 -S UP -v circle -c black -i black
n -t * -a 1 -s 1 -S UP -v circle -c black -i black
n -t * -a 2 -s 2 -S UP -v circle -c black -i black
n -t * -a 3 -s 3 -S UP -v circle -c black -i black
l -t * -s 0 -d 3 -S UP -r 2000000 -D 0.01 -c black -o right-down
l -t * -s 1 -d 3 -S UP -r 2000000 -D 0.01 -c black -o right-center
l -t * -s 2 -d 3 -S UP -r 2000000 -D 0.01 -c black -o right-up
l -t * -s 3 -d 4 -S UP -r 500000 -D 0.02 -c black -o right
q -t * -s 4 -d 3 -a 0.5
q -t * -s 3 -d 4 -a 0.5
+ -t 0.517002757697776 -s 0 -d 3 -p exp -e 40 -c 1 -i 0 -a 1 -x {0.0 4.0 0 ------- null}
- -t 0.517002757697776 -s 0 -d 3 -p exp -e 40 -c 1 -i 0 -a 1 -x {0.0 4.0 0 ------- null}
h -t 0.517002757697776 -s 0 -d 3 -p exp -e 40 -c 1 -i 0 -a 1 -x {0.0 4.0 -1 ------- null}
r -t 0.527162757697776 -s 0 -d 3 -p exp -e 40 -c 1 -i 0 -a 1 -x {0.0 4.0 0 ------- null}
+ -t 0.527162757697776 -s 3 -d 4 -p exp -e 40 -c 1 -i 0 -a 1 -x {0.0 4.0 0 ------- null}
- -t 0.527162757697776 -s 3 -d 4 -p exp -e 40 -c 1 -i 0 -a 1 -x {0.0 4.0 0 ------- null}
h -t 0.527162757697776 -s 3 -d 4 -p exp -e 40 -c 1 -i 0 -a 1 -x {0.0 4.0 -1 ------- null}
r -t 0.547802757697776 -s 3 -d 4 -p exp -e 40 -c 1 -i 0 -a 1 -x {0.0 4.0 0 ------- null}
+ -t 0.547802757697776 -s 4 -d 3 -p ack -e 40 -c 1 -i 1 -a 1 -x {4.0 0.0 0 ------- null}
- -t 0.547802757697776 -s 4 -d 3 -p ack -e 40 -c 1 -i 1 -a 1 -x {4.0 0.0 0 ------- null}
h -t 0.547802757697776 -s 4 -d 3 -p ack -e 40 -c 1 -i 1 -a 1 -x {4.0 0.0 -1 ------- null}
r -t 0.568442757697776 -s 4 -d 3 -p ack -e 40 -c 1 -i 1 -a 1 -x {4.0 0.0 0 ------- null}
+ -t 0.568442757697776 -s 3 -d 0 -p ack -e 40 -c 1 -i 1 -a 1 -x {4.0 0.0 0 ------- null}
- -t 0.568442757697776 -s 3 -d 0 -p ack -e 40 -c 1 -i 1 -a 1 -x {4.0 0.0 0 ------- null}
h -t 0.568442757697776 -s 3 -d 0 -p ack -e 40 -c 1 -i 1 -a 1 -x {4.0 0.0 -1 ------- null}
r -t 0.578602757697776 -s 3 -d 0 -p ack -e 40 -c 1 -i 1 -a 1 -x {4.0 0.0 0 ------- null}
+ -t 0.578602757697776 -s 0 -d 3 -p exp -e 1040 -c 1 -i 2 -a 1 -x {0.0 4.0 0 ------- null}
- -t 0.578602757697776 -s 0 -d 3 -p exp -e 1040 -c 1 -i 2 -a 1 -x {0.0 4.0 0 ------- null}
h -t 0.578602757697776 -s 0 -d 3 -p exp -e 1040 -c 1 -i 2 -a 1 -x {0.0 4.0 -1 ------- null}
+ -t 0.578602757697776 -s 0 -d 3 -p exp -e 1040 -c 1 -i 3 -a 1 -x {0.0 4.0 0 ------- null}
- -t 0.582762757697776 -s 0 -d 3 -p exp -e 1040 -c 1 -i 3 -a 1 -x {0.0 4.0 0 ------- null}
h -t 0.582762757697776 -s 0 -d 3 -p exp -e 1040 -c 1 -i 3 -a 1 -x {0.0 4.0 -1 ------- null}
r -t 0.592762757697776 -s 0 -d 3 -p exp -e 1040 -c 1 -i 2 -a 1 -x {0.0 4.0 0 ------- null}
+ -t 0.592762757697776 -s 3 -d 4 -p exp -e 1040 -c 1 -i 2 -a 1 -x {0.0 4.0 0 ------- null}
- -t 0.592762757697776 -s 3 -d 4 -p exp -e 1040 -c 1 -i 2 -a 1 -x {0.0 4.0 0 ------- null}
h -t 0.592762757697776 -s 3 -d 4 -p exp -e 1040 -c 1 -i 2 -a 1 -x {0.0 4.0 -1 ------- null}
r -t 0.596922757697776 -s 0 -d 3 -p exp -e 1040 -c 1 -i 3 -a 1 -x {0.0 4.0 0 ------- null}
+ -t 0.596922757697776 -s 3 -d 4 -p exp -e 1040 -c 1 -i 3 -a 1 -x {0.0 4.0 0 ------- null}
- -t 0.609402757697776 -s 3 -d 4 -p exp -e 1040 -c 1 -i 3 -a 1 -x {0.0 4.0 0 ------- null}
h -t 0.609402757697776 -s 3 -d 4 -p exp -e 1040 -c 1 -i 3 -a 1 -x {0.0 4.0 -1 ------- null}
r -t 0.629402757697776 -s 3 -d 4 -p exp -e 1040 -c 1 -i 2 -a 1 -x {0.0 4.0 0 ------- null}
+ -t 0.629402757697776 -s 4 -d 3 -p ack -e 40 -c 1 -i 4 -a 1 -x {4.0 0.0 1 ------- null}
- -t 0.629402757697776 -s 4 -d 3 -p ack -e 40 -c 1 -i 4 -a 1 -x {4.0 0.0 1 ------- null}
h -t 0.629402757697776 -s 4 -d 3 -p ack -e 40 -c 1 -i 4 -a 1 -x {4.0 0.0 -1 ------- null}
r -t 0.646042757697776 -s 3 -d 4 -p exp -e 1040 -c 1 -i 3 -a 1 -x {0.0 4.0 0 ------- null}
+ -t 0.646042757697776 -s 4 -d 3 -p ack -e 40 -c 1 -i 5 -a 1 -x {4.0 0.0 2 ------- null}
- -t 0.646042757697776 -s 4 -d 3 -p ack -e 40 -c 1 -i 5 -a 1 -x {4.0 0.0 2 ------- null}
h -t 0.646042757697776 -s 4 -d 3 -p ack -e 40 -c 1 -i 5 -a 1 -x {4.0 0.0 -1 ------- null}
r -t 0.650042757697776 -s 4 -d 3 -p ack -e 40 -c 1 -i 4 -a 1 -x {4.0 0.0 1 ------- null}
+ -t 0.650042757697776 -s 3 -d 0 -p ack -e 40 -c 1 -i 4 -a 1 -x {4.0 0.0 1 ------- null}
- -t 0.650042757697776 -s 3 -d 0 -p ack -e 40 -c 1 -i 4 -a 1 -x {4.0 0.0 1 ------- null}
h -t 0.650042757697776 -s 3 -d 0 -p ack -e 40 -c 1 -i 4 -a 1 -x {4.0 0.0 -1 ------- null}
r -t 0.660202757697776 -s 3 -d 0 -p ack -e 40 -c 1 -i 4 -a 1 -x {4.0 0.0 1 ------- null}
+ -t 0.660202757697776 -s 0 -d 3 -p exp -e 1040 -c 1 -i 6 -a 1 -x {0.0 4.0 0 ------- null}
- -t 0.660202757697776 -s 0 -d 3 -p exp -e 1040 -c 1 -i 6 -a 1 -x {0.0 4.0 0 ------- null}
h -t 0.660202757697776 -s 0 -d 3 -p exp -e 1040 -c 1 -i 6 -a 1 -x {0.0 4.0 -1 ------- null}
+ -t 0.660202757697776 -s 0 -d 3 -p exp -e 1040 -c 1 -i 7 -a 1 -x {0.0 4.0 0 ------- null}
- -t 0.664362757697776 -s 0 -d 3 -p exp -e 1040 -c 1 -i 7 -a 1 -x {0.0 4.0 0 ------- null}
h -t 0.664362757697776 -s 0 -d 3 -p exp -e 1040 -c 1 -i 7 -a 1 -x {0.0 4.0 -1 ------- null}
r -t 0.666682757697776 -s 4 -d 3 -p ack -e 40 -c 1 -i 5 -a 1 -x {4.0 0.0 2 ------- null}
+ -t 0.666682757697776 -s 3 -d 0 -p ack -e 40 -c 1 -i 5 -a 1 -x {4.0 0.0 2 ------- null}
- -t 0.666682757697776 -s 3 -d 0 -p ack -e 40 -c 1 -i 5 -a 1 -x {4.0 0.0 2 ------- null}
h -t 0.666682757697776 -s 3 -d 0 -p ack -e 40 -c 1 -i 5 -a 1 -x {4.0 0.0 -1 ------- null}
r -t 0.674362757697776 -s 0 -d 3 -p exp -e 1040 -c 1 -i 6 -a 1 -x {0.0 4.0 0 ------- null}
+ -t 0.674362757697776 -s 3 -d 4 -p exp -e 1040 -c 1 -i 6 -a 1 -x {0.0 4.0 0 ------- null}
- -t 0.674362757697776 -s 3 -d 4 -p exp -e 1040 -c 1 -i 6 -a 1 -x {0.0 4.0 0 ------- null}
h -t 0.674362757697776 -s 3 -d 4 -p exp -e 1040 -c 1 -i 6 -a 1 -x {0.0 4.0 -1 ------- null}
r -t 0.676842757697776 -s 3 -d 0 -p ack -e 40 -c 1 -i 5 -a 1 -x {4.0 0.0 2 ------- null}
+ -t 0.676842757697776 -s 0 -d 3 -p exp -e 1040 -c 1 -i 8 -a 1 -x {0.0 4.0 0 ------- null}
- -t 0.676842757697776 -s 0 -d 3 -p exp -e 1040 -c 1 -i 8 -a 1 -x {0.0 4.0 0 ------- null}
h -t 0.676842757697776 -s 0 -d 3 -p exp -e 1040 -c 1 -i 8 -a 1 -x {0.0 4.0 -1 ------- null}
+ -t 0.676842757697776 -s 0 -d 3 -p exp -e 1040 -c 1 -i 9 -a 1 -x {0.0 4.0 0 ------- null}
r -t 0.678522757697776 -s 0 -d 3 -p exp -e 1040 -c 1 -i 7 -a 1 -x {0.0 4.0 0 ------- null}
+ -t 0.678522757697776 -s 3 -d 4 -p exp -e 1040 -c 1 -i 7 -a 1 -x {0.0 4.0 0 ------- null}
- -t 0.681002757697776 -s 0 -d 3 -p exp -e 1040 -c 1 -i 9 -a 1 -x {0.0 4.0 0 ------- null}
h -t 0.681002757697776 -s 0 -d 3 -p exp -e 1040 -c 1 -i 9 -a 1 -x {0.0 4.0 -1 ------- null}
- -t 0.691002757697776 -s 3 -d 4 -p exp -e 1040 -c 1 -i 7 -a 1 -x {0.0 4.0 0 ------- null}
h -t 0.691002757697776 -s 3 -d 4 -p exp -e 1040 -c 1 -i 7 -a 1 -x {0.0 4.0 -1 ------- null}
r -t 0.691002757697776 -s 0 -d 3 -p exp -e 1040 -c 1 -i 8 -a 1 -x {0.0 4.0 0 ------- null}
+ -t 0.691002757697776 -s 3 -d 4 -p exp -e 1040 -c 1 -i 8 -a 1 -x {0.0 4.0 0 ------- null}
r -t 0.695162757697776 -s 0 -d 3 -p exp -e 1040 -c 1 -i 9 -a 1 -x {0.0 4.0 0 ------- null}
+ -t 0.695162757697776 -s 3 -d 4 -p exp -e 1040 -c 1 -i 9 -a 1 -x {0.0 4.0 0 ------- null}
- -t 0.707642757697776 -s 3 -d 4 -p exp -e 1040 -c 1 -i 8 -a 1 -x {0.0 4.0 0 ------- null}
h -t 0.707642757697776 -s 3 -d 4 -p exp -e 1040 -c 1 -i 8 -a 1 -x {0.0 4.0 -1 ------- null}
r -t 0.711002757697776 -s 3 -d 4 -p exp -e 1040 -c 1 -i 6 -a 1 -x {0.0 4.0 0 ------- null}
+ -t 0.711002757697776 -s 4 -d 3 -p ack -e 40 -c 1 -i 10 -a 1 -x {4.0 0.0 3 ------- null}
- -t 0.711002757697776 -s 4 -d 3 -p ack -e 40 -c 1 -i 10 -a 1 -x {4.0 0.0 3 ------- null}
h -t 0.711002757697776 -s 4 -d 3 -p ack -e 40 -c 1 -i 10 -a 1 -x {4.0 0.0 -1 ------- null}
- -t 0.724282757697776 -s 3 -d 4 -p exp -e 1040 -c 1 -i 9 -a 1 -x {0.0 4.0 0 ------- null}
h -t 0.724282757697776 -s 3 -d 4 -p exp -e 1040 -c 1 -i 9 -a 1 -x {0.0 4.0 -1 ------- null}
r -t 0.727642757697776 -s 3 -d 4 -p exp -e 1040 -c 1 -i 7 -a 1 -x {0.0 4.0 0 ------- null}
+ -t 0.727642757697776 -s 4 -d 3 -p ack -e 40 -c 1 -i 11 -a 1 -x {4.0 0.0 4 ------- null}
- -t 0.727642757697776 -s 4 -d 3 -p ack -e 40 -c 1 -i 11 -a 1 -x {4.0 0.0 4 ------- null}
h -t 0.727642757697776 -s 4 -d 3 -p ack -e 40 -c 1 -i 11 -a 1 -x {4.0 0.0 -1 ------- null}
r -t 0.731642757697776 -s 4 -d 3 -p ack -e 40 -c 1 -i 10 -a 1 -x {4.0 0.0 3 ------- null}
+ -t 0.731642757697776 -s 3 -d 0 -p ack -e 40 -c 1 -i 10 -a 1 -x {4.0 0.0 3 ------- null}
- -t 0.731642757697776 -s 3 -d 0 -p ack -e 40 -c 1 -i 10 -a 1 -x {4.0 0.0 3 ------- null}
h -t 0.731642757697776 -s 3 -d 0 -p ack -e 40 -c 1 -i 10 -a 1 -x {4.0 0.0 -1 ------- null}
r -t 0.741802757697776 -s 3 -d 0 -p ack -e 40 -c 1 -i 10 -a 1 -x {4.0 0.0 3 ------- null}
+ -t 0.741802757697776 -s 0 -d 3 -p exp -e 1040 -c 1 -i 12 -a 1 -x {0.0 4.0 0 ------- null}
- -t 0.741802757697776 -s 0 -d 3 -p exp -e 1040 -c 1 -i 12 -a 1 -x {0.0 4.0 0 ------- null}
h -t 0.741802757697776 -s 0 -d 3 -p exp -e 1040 -c 1 -i 12 -a 1 -x {0.0 4.0 -1 ------- null}
+ -t 0.741802757697776 -s 0 -d 3 -p exp -e 1040 -c 1 -i 13 -a 1 -x {0.0 4.0 0 ------- null}
r -t 0.744282757697776 -s 3 -d 4 -p exp -e 1040 -c 1 -i 8 -a 1 -x {0.0 4.0 0 ------- null}
+ -t 0.744282757697776 -s 4 -d 3 -p ack -e 40 -c 1 -i 14 -a 1 -x {4.0 0.0 5 ------- null}
- -t 0.744282757697776 -s 4 -d 3 -p ack -e 40 -c 1 -i 14 -a 1 -x {4.0 0.0 5 ------- null}
h -t 0.744282757697776 -s 4 -d 3 -p ack -e 40 -c 1 -i 14 -a 1 -x {4.0 0.0 -1 ------- null}
- -t 0.745962757697776 -s 0 -d 3 -p exp -e 1040 -c 1 -i 13 -a 1 -x {0.0 4.0 0 ------- null}
h -t 0.745962757697776 -s 0 -d 3 -p exp -e 1040 -c 1 -i 13 -a 1 -x {0.0 4.0 -1 ------- null}
r -t 0.748282757697776 -s 4 -d 3 -p ack -e 40 -c 1 -i 11 -a 1 -x {4.0 0.0 4 ------- null}
+ -t 0.748282757697776 -s 3 -d 0 -p ack -e 40 -c 1 -i 11 -a 1 -x {4.0 0.0 4 ------- null}
- -t 0.748282757697776 -s 3 -d 0 -p ack -e 40 -c 1 -i 11 -a 1 -x {4.0 0.0 4 ------- null}
h -t 0.748282757697776 -s 3 -d 0 -p ack -e 40 -c 1 -i 11 -a 1 -x {4.0 0.0 -1 ------- null}
r -t 0.755962757697776 -s 0 -d 3 -p exp -e 1040 -c 1 -i 12 -a 1 -x {0.0 4.0 0 ------- null}
+ -t 0.755962757697776 -s 3 -d 4 -p exp -e 1040 -c 1 -i 12 -a 1 -x {0.0 4.0 0 ------- null}
- -t 0.755962757697776 -s 3 -d 4 -p exp -e 1040 -c 1 -i 12 -a 1 -x {0.0 4.0 0 ------- null}
h -t 0.755962757697776 -s 3 -d 4 -p exp -e 1040 -c 1 -i 12 -a 1 -x {0.0 4.0 -1 ------- null}
r -t 0.758442757697776 -s 3 -d 0 -p ack -e 40 -c 1 -i 11 -a 1 -x {4.0 0.0 4 ------- null}
+ -t 0.758442757697776 -s 0 -d 3 -p exp -e 1040 -c 1 -i 15 -a 1 -x {0.0 4.0 0 ------- null}
- -t 0.758442757697776 -s 0 -d 3 -p exp -e 1040 -c 1 -i 15 -a 1 -x {0.0 4.0 0 ------- null}
h -t 0.758442757697776 -s 0 -d 3 -p exp -e 1040 -c 1 -i 15 -a 1 -x {0.0 4.0 -1 ------- null}
+ -t 0.758442757697776 -s 0 -d 3 -p exp -e 1040 -c 1 -i 16 -a 1 -x {0.0 4.0 0 ------- null}
r -t 0.760122757697776 -s 0 -d 3 -p exp -e 1040 -c 1 -i 13 -a 1 -x {0.0 4.0 0 ------- null}
+ -t 0.760122757697776 -s 3 -d 4 -p exp -e 1040 -c 1 -i 13 -a 1 -x {0.0 4.0 0 ------- null}
r -t 0.760922757697776 -s 3 -d 4 -p exp -e 1040 -c 1 -i 9 -a 1 -x {0.0 4.0 0 ------- null}
+ -t 0.760922757697776 -s 4 -d 3 -p ack -e 40 -c 1 -i 17 -a 1 -x {4.0 0.0 6 ------- null}
- -t 0.760922757697776 -s 4 -d 3 -p ack -e 40 -c 1 -i 17 -a 1 -x {4.0 0.0 6 ------- null}
h -t 0.760922757697776 -s 4 -d 3 -p ack -e 40 -c 1 -i 17 -a 1 -x {4.0 0.0 -1 ------- null}
- -t 0.762602757697776 -s 0 -d 3 -p exp -e 1040 -c 1 -i 16 -a 1 -x {0.0 4.0 0 ------- null}
h -t 0.762602757697776 -s 0 -d 3 -p exp -e 1040 -c 1 -i 16 -a 1 -x {0.0 4.0 -1 ------- null}
r -t 0.764922757697776 -s 4 -d 3 -p ack -e 40 -c 1 -i 14 -a 1 -x {4.0 0.0 5 ------- null}
+ -t 0.764922757697776 -s 3 -d 0 -p ack -e 40 -c 1 -i 14 -a 1 -x {4.0 0.0 5 ------- null}
- -t 0.764922757697776 -s 3 -d 0 -p ack -e 40 -c 1 -i 14 -a 1 -x {4.0 0.0 5 ------- null}
h -t 0.764922757697776 -s 3 -d 0 -p ack -e 40 -c 1 -i 14 -a 1 -x {4.0 0.0 -1 ------- null}
- -t 0.772602757697776 -s 3 -d 4 -p exp -e 1040 -c 1 -i 13 -a 1 -x {0.0 4.0 0 ------- null}
h -t 0.772602757697776 -s 3 -d 4 -p exp -e 1040 -c 1 -i 13 -a 1 -x {0.0 4.0 -1 ------- null}
r -t 0.772602757697776 -s 0 -d 3 -p exp -e 1040 -c 1 -i 15 -a 1 -x {0.0 4.0 0 ------- null}
+ -t 0.772602757697776 -s 3 -d 4 -p exp -e 1040 -c 1 -i 15 -a 1 -x {0.0 4.0 0 ------- null}
r -t 0.775082757697776 -s 3 -d 0 -p ack -e 40 -c 1 -i 14 -a 1 -x {4.0 0.0 5 ------- null}
+ -t 0.775082757697776 -s 0 -d 3 -p exp -e 1040 -c 1 -i 18 -a 1 -x {0.0 4.0 0 ------- null}
- -t 0.775082757697776 -s 0 -d 3 -p exp -e 1040 -c 1 -i 18 -a 1 -x {0.0 4.0 0 ------- null}
h -t 0.775082757697776 -s 0 -d 3 -p exp -e 1040 -c 1 -i 18 -a 1 -x {0.0 4.0 -1 ------- null}
+ -t 0.775082757697776 -s 0 -d 3 -p exp -e 1040 -c 1 -i 19 -a 1 -x {0.0 4.0 0 ------- null}
r -t 0.776762757697776 -s 0 -d 3 -p exp -e 1040 -c 1 -i 16 -a 1 -x {0.0 4.0 0 ------- null}
+ -t 0.776762757697776 -s 3 -d 4 -p exp -e 1040 -c 1 -i 16 -a 1 -x {0.0 4.0 0 ------- null}
- -t 0.779242757697776 -s 0 -d 3 -p exp -e 1040 -c 1 -i 19 -a 1 -x {0.0 4.0 0 ------- null}
h -t 0.779242757697776 -s 0 -d 3 -p exp -e 1040 -c 1 -i 19 -a 1 -x {0.0 4.0 -1 ------- null}
r -t 0.781562757697776 -s 4 -d 3 -p ack -e 40 -c 1 -i 17 -a 1 -x {4.0 0.0 6 ------- null}
+ -t 0.781562757697776 -s 3 -d 0 -p ack -e 40 -c 1 -i 17 -a 1 -x {4.0 0.0 6 ------- null}
- -t 0.781562757697776 -s 3 -d 0 -p ack -e 40 -c 1 -i 17 -a 1 -x {4.0 0.0 6 ------- null}
h -t 0.781562757697776 -s 3 -d 0 -p ack -e 40 -c 1 -i 17 -a 1 -x {4.0 0.0 -1 ------- null}
- -t 0.789242757697776 -s 3 -d 4 -p exp -e 1040 -c 1 -i 15 -a 1 -x {0.0 4.0 0 ------- null}
h -t 0.789242757697776 -s 3 -d 4 -p exp -e 1040 -c 1 -i 15 -a 1 -x {0.0 4.0 -1 ------- null}
r -t 0.789242757697776 -s 0 -d 3 -p exp -e 1040 -c 1 -i 18 -a 1 -x {0.0 4.0 0 ------- null}
+ -t 0.789242757697776 -s 3 -d 4 -p exp -e 1040 -c 1 -i 18 -a 1 -x {0.0 4.0 0 ------- null}
r -t 0.791722757697776 -s 3 -d 0 -p ack -e 40 -c 1 -i 17 -a 1 -x {4.0 0.0 6 ------- null}
+ -t 0.791722757697776 -s 0 -d 3 -p exp -e 1040 -c 1 -i 20 -a 1 -x {0.0 4.0 0 ------- null}
- -t 0.791722757697776 -s 0 -d 3 -p exp -e 1040 -c 1 -i 20 -a 1 -x {0.0 4.0 0 ------- null}
h -t 0.791722757697776 -s 0 -d 3 -p exp -e 1040 -c 1 -i 20 -a 1 -x {0.0 4.0 -1 ------- null}
+ -t 0.791722757697776 -s 0 -d 3 -p exp -e 1040 -c 1 -i 21 -a 1 -x {0.0 4.0 0 ------- null}
r -t 0.792602757697776 -s 3 -d 4 -p exp -e 1040 -c 1 -i 12 -a 1 -x {0.0 4.0 0 ------- null}
+ -t 0.792602757697776 -s 4 -d 3 -p ack -e 40 -c 1 -i 22 -a 1 -x {4.0 0.0 7 ------- null}
- -t 0.792602757697776 -s 4 -d 3 -p ack -e 40 -c 1 -i 22 -a 1 -x {4.0 0.0 7 ------- null}
h -t 0.792602757697776 -s 4 -d 3 -p ack -e 40 -c 1 -i 22 -a 1 -x {4.0 0.0 -1 ------- null}
r -t 0.793402757697776 -s 0 -d 3 -p exp -e 1040 -c 1 -i 19 -a 1 -x {0.0 4.0 0 ------- null}
+ -t 0.793402757697776 -s 3 -d 4 -p exp -e 1040 -c 1 -i 19 -a 1 -x {0.0 4.0 0 ------- null}
- -t 0.795882757697776 -s 0 -d 3 -p exp -e 1040 -c 1 -i 21 -a 1 -x {0.0 4.0 0 ------- null}
h -t 0.795882757697776 -s 0 -d 3 -p exp -e 1040 -c 1 -i 21 -a 1 -x {0.0 4.0 -1 ------- null}
- -t 0.805882757697776 -s 3 -d 4 -p exp -e 1040 -c 1 -i 16 -a 1 -x {0.0 4.0 0 ------- null}
h -t 0.805882757697776 -s 3 -d 4 -p exp -e 1040 -c 1 -i 16 -a 1 -x {0.0 4.0 -1 ------- null}
r -t 0.805882757697776 -s 0 -d 3 -p exp -e 1040 -c 1 -i 20 -a 1 -x {0.0 4.0 0 ------- null}
+ -t 0.805882757697776 -s 3 -d 4 -p exp -e 1040 -c 1 -i 20 -a 1 -x {0.0 4.0 0 ------- null}
r -t 0.809242757697776 -s 3 -d 4 -p exp -e 1040 -c 1 -i 13 -a 1 -x {0.0 4.0 0 ------- null}
+ -t 0.809242757697776 -s 4 -d 3 -p ack -e 40 -c 1 -i 23 -a 1 -x {4.0 0.0 8 ------- null}
- -t 0.809242757697776 -s 4 -d 3 -p ack -e 40 -c 1 -i 23 -a 1 -x {4.0 0.0 8 ------- null}
h -t 0.809242757697776 -s 4 -d 3 -p ack -e 40 -c 1 -i 23 -a 1 -x {4.0 0.0 -1 ------- null}
r -t 0.810042757697776 -s 0 -d 3 -p exp -e 1040 -c 1 -i 21 -a 1 -x {0.0 4.0 0 ------- null}
+ -t 0.810042757697776 -s 3 -d 4 -p exp -e 1040 -c 1 -i 21 -a 1 -x {0.0 4.0 0 ------- null}
r -t 0.813242757697776 -s 4 -d 3 -p ack -e 40 -c 1 -i 22 -a 1 -x {4.0 0.0 7 ------- null}
+ -t 0.813242757697776 -s 3 -d 0 -p ack -e 40 -c 1 -i 22 -a 1 -x {4.0 0.0 7 ------- null}
- -t 0.813242757697776 -s 3 -d 0 -p ack -e 40 -c 1 -i 22 -a 1 -x {4.0 0.0 7 ------- null}
h -t 0.813242757697776 -s 3 -d 0 -p ack -e 40 -c 1 -i 22 -a 1 -x {4.0 0.0 -1 ------- null}
- -t 0.822522757697776 -s 3 -d 4 -p exp -e 1040 -c 1 -i 18 -a 1 -x {0.0 4.0 0 ------- null}
h -t 0.822522757697776 -s 3 -d 4 -p exp -e 1040 -c 1 -i 18 -a 1 -x {0.0 4.0 -1 ------- null}
r -t 0.823402757697776 -s 3 -d 0 -p ack -e 40 -c 1 -i 22 -a 1 -x {4.0 0.0 7 ------- null}
+ -t 0.823402757697776 -s 0 -d 3 -p exp -e 1040 -c 1 -i 24 -a 1 -x {0.0 4.0 0 ------- null}
- -t 0.823402757697776 -s 0 -d 3 -p exp -e 1040 -c 1 -i 24 -a 1 -x {0.0 4.0 0 ------- null}
h -t 0.823402757697776 -s 0 -d 3 -p exp -e 1040 -c 1 -i 24 -a 1 -x {0.0 4.0 -1 ------- null}
+ -t 0.823402757697776 -s 0 -d 3 -p exp -e 1040 -c 1 -i 25 -a 1 -x {0.0 4.0 0 ------- null}
r -t 0.825882757697776 -s 3 -d 4 -p exp -e 1040 -c 1 -i 15 -a 1 -x {0.0 4.0 0 ------- null}
+ -t 0.825882757697776 -s 4 -d 3 -p ack -e 40 -c 1 -i 26 -a 1 -x {4.0 0.0 9 ------- null}
- -t 0.825882757697776 -s 4 -d 3 -p ack -e 40 -c 1 -i 26 -a 1 -x {4.0 0.0 9 ------- null}
h -t 0.825882757697776 -s 4 -d 3 -p ack -e 40 -c 1 -i 26 -a 1 -x {4.0 0.0 -1 ------- null}
- -t 0.827562757697776 -s 0 -d 3 -p exp -e 1040 -c 1 -i 25 -a 1 -x {0.0 4.0 0 ------- null}
h -t 0.827562757697776 -s 0 -d 3 -p exp -e 1040 -c 1 -i 25 -a 1 -x {0.0 4.0 -1 ------- null}
r -t 0.829882757697776 -s 4 -d 3 -p ack -e 40 -c 1 -i 23 -a 1 -x {4.0 0.0 8 ------- null}
+ -t 0.829882757697776 -s 3 -d 0 -p ack -e 40 -c 1 -i 23 -a 1 -x {4.0 0.0 8 ------- null}
- -t 0.829882757697776 -s 3 -d 0 -p ack -e 40 -c 1 -i 23 -a 1 -x {4.0 0.0 8 ------- null}
h -t 0.829882757697776 -s 3 -d 0 -p ack -e 40 -c 1 -i 23 -a 1 -x {4.0 0.0 -1 ------- null}
r -t 0.837562757697776 -s 0 -d 3 -p exp -e 1040 -c 1 -i 24 -a 1 -x {0.0 4.0 0 ------- null}
+ -t 0.837562757697776 -s 3 -d 4 -p exp -e 1040 -c 1 -i 24 -a 1 -x {0.0 4.0 0 ------- null}
- -t 0.839162757697776 -s 3 -d 4 -p exp -e 1040 -c 1 -i 19 -a 1 -x {0.0 4.0 0 ------- null}
h -t 0.839162757697776 -s 3 -d 4 -p exp -e 1040 -c 1 -i 19 -a 1 -x {0.0 4.0 -1 ------- null}
r -t 0.840042757697776 -s 3 -d 0 -p ack -e 40 -c 1 -i 23 -a 1 -x {4.0 0.0 8 ------- null}
+ -t 0.840042757697776 -s 0 -d 3 -p exp -e 1040 -c 1 -i 27 -a 1 -x {0.0 4.0 0 ------- null}
- -t 0.840042757697776 -s 0 -d 3 -p exp -e 1040 -c 1 -i 27 -a 1 -x {0.0 4.0 0 ------- null}
h -t 0.840042757697776 -s 0 -d 3 -p exp -e 1040 -c 1 -i 27 -a 1 -x {0.0 4.0 -1 ------- null}
+ -t 0.840042757697776 -s 0 -d 3 -p exp -e 1040 -c 1 -i 28 -a 1 -x {0.0 4.0 0 ------- null}
r -t 0.841722757697776 -s 0 -d 3 -p exp -e 1040 -c 1 -i 25 -a 1 -x {0.0 4.0 0 ------- null}
+ -t 0.841722757697776 -s 3 -d 4 -p exp -e 1040 -c 1 -i 25 -a 1 -x {0.0 4.0 0 ------- null}
r -t 0.842522757697776 -s 3 -d 4 -p exp -e 1040 -c 1 -i 16 -a 1 -x {0.0 4.0 0 ------- null}
+ -t 0.842522757697776 -s 4 -d 3 -p ack -e 40 -c 1 -i 29 -a 1 -x {4.0 0.0 10 ------- null}
- -t 0.842522757697776 -s 4 -d 3 -p ack -e 40 -c 1 -i 29 -a 1 -x {4.0 0.0 10 ------- null}
h -t 0.842522757697776 -s 4 -d 3 -p ack -e 40 -c 1 -i 29 -a 1 -x {4.0 0.0 -1 ------- null}
- -t 0.844202757697776 -s 0 -d 3 -p exp -e 1040 -c 1 -i 28 -a 1 -x {0.0 4.0 0 ------- null}
h -t 0.844202757697776 -s 0 -d 3 -p exp -e 1040 -c 1 -i 28 -a 1 -x {0.0 4.0 -1 ------- null}
r -t 0.846522757697776 -s 4 -d 3 -p ack -e 40 -c 1 -i 26 -a 1 -x {4.0 0.0 9 ------- null}
+ -t 0.846522757697776 -s 3 -d 0 -p ack -e 40 -c 1 -i 26 -a 1 -x {4.0 0.0 9 ------- null}
- -t 0.846522757697776 -s 3 -d 0 -p ack -e 40 -c 1 -i 26 -a 1 -x {4.0 0.0 9 ------- null}
h -t 0.846522757697776 -s 3 -d 0 -p ack -e 40 -c 1 -i 26 -a 1 -x {4.0 0.0 -1 ------- null}
r -t 0.854202757697776 -s 0 -d 3 -p exp -e 1040 -c 1 -i 27 -a 1 -x {0.0 4.0 0 ------- null}
+ -t 0.854202757697776 -s 3 -d 4 -p exp -e 1040 -c 1 -i 27 -a 1 -x {0.0 4.0 0 ------- null}
- -t 0.855802757697776 -s 3 -d 4 -p exp -e 1040 -c 1 -i 20 -a 1 -x {0.0 4.0 0 ------- null}
h -t 0.855802757697776 -s 3 -d 4 -p exp -e 1040 -c 1 -i 20 -a 1 -x {0.0 4.0 -1 ------- null}
r -t 0.856682757697776 -s 3 -d 0 -p ack -e 40 -c 1 -i 26 -a 1 -x {4.0 0.0 9 ------- null}
+ -t 0.856682757697776 -s 0 -d 3 -p exp -e 1040 -c 1 -i 30 -a 1 -x {0.0 4.0 0 ------- null}
- -t 0.856682757697776 -s 0 -d 3 -p exp -e 1040 -c 1 -i 30 -a 1 -x {0.0 4.0 0 ------- null}
h -t 0.856682757697776 -s 0 -d 3 -p exp -e 1040 -c 1 -i 30 -a 1 -x {0.0 4.0 -1 ------- null}
+ -t 0.856682757697776 -s 0 -d 3 -p exp -e 1040 -c 1 -i 31 -a 1 -x {0.0 4.0 0 ------- null}
r -t 0.858362757697776 -s 0 -d 3 -p exp -e 1040 -c 1 -i 28 -a 1 -x {0.0 4.0 0 ------- null}
+ -t 0.858362757697776 -s 3 -d 4 -p exp -e 1040 -c 1 -i 28 -a 1 -x {0.0 4.0 0 ------- null}
r -t 0.859162757697776 -s 3 -d 4 -p exp -e 1040 -c 1 -i 18 -a 1 -x {0.0 4.0 0 ------- null}
+ -t 0.859162757697776 -s 4 -d 3 -p ack -e 40 -c 1 -i 32 -a 1 -x {4.0 0.0 11 ------- null}
- -t 0.859162757697776 -s 4 -d 3 -p ack -e 40 -c 1 -i 32 -a 1 -x {4.0 0.0 11 ------- null}
h -t 0.859162757697776 -s 4 -d 3 -p ack -e 40 -c 1 -i 32 -a 1 -x {4.0 0.0 -1 ------- null}
- -t 0.860842757697776 -s 0 -d 3 -p exp -e 1040 -c 1 -i 31 -a 1 -x {0.0 4.0 0 ------- null}
h -t 0.860842757697776 -s 0 -d 3 -p exp -e 1040 -c 1 -i 31 -a 1 -x {0.0 4.0 -1 ------- null}
r -t 0.863162757697776 -s 4 -d 3 -p ack -e 40 -c 1 -i 29 -a 1 -x {4.0 0.0 10 ------- null}
+ -t 0.863162757697776 -s 3 -d 0 -p ack -e 40 -c 1 -i 29 -a 1 -x {4.0 0.0 10 ------- null}
- -t 0.863162757697776 -s 3 -d 0 -p ack -e 40 -c 1 -i 29 -a 1 -x {4.0 0.0 10 ------- null}
h -t 0.863162757697776 -s 3 -d 0 -p ack -e 40 -c 1 -i 29 -a 1 -x {4.0 0.0 -1 ------- null}
r -t 0.870842757697776 -s 0 -d 3 -p exp -e 1040 -c 1 -i 30 -a 1 -x {0.0 4.0 0 ------- null}
+ -t 0.870842757697776 -s 3 -d 4 -p exp -e 1040 -c 1 -i 30 -a 1 -x {0.0 4.0 0 ------- null}
- -t 0.872442757697776 -s 3 -d 4 -p exp -e 1040 -c 1 -i 21 -a 1 -x {0.0 4.0 0 ------- null}
h -t 0.872442757697776 -s 3 -d 4 -p exp -e 1040 -c 1 -i 21 -a 1 -x {0.0 4.0 -1 ------- null}
r -t 0.873322757697776 -s 3 -d 0 -p ack -e 40 -c 1 -i 29 -a 1 -x {4.0 0.0 10 ------- null}
+ -t 0.874492900531349 -s 0 -d 3 -p exp -e 1040 -c 1 -i 33 -a 1 -x {0.0 4.0 0 ------- null}
- -t 0.874492900531349 -s 0 -d 3 -p exp -e 1040 -c 1 -i 33 -a 1 -x {0.0 4.0 0 ------- null}
h -t 0.874492900531349 -s 0 -d 3 -p exp -e 1040 -c 1 -i 33 -a 1 -x {0.0 4.0 -1 ------- null}
r -t 0.875002757697776 -s 0 -d 3 -p exp -e 1040 -c 1 -i 31 -a 1 -x {0.0 4.0 0 ------- null}
+ -t 0.875002757697776 -s 3 -d 4 -p exp -e 1040 -c 1 -i 31 -a 1 -x {0.0 4.0 0 ------- null}
r -t 0.875802757697776 -s 3 -d 4 -p exp -e 1040 -c 1 -i 19 -a 1 -x {0.0 4.0 0 ------- null}
+ -t 0.875802757697776 -s 4 -d 3 -p ack -e 40 -c 1 -i 34 -a 1 -x {4.0 0.0 12 ------- null}
- -t 0.875802757697776 -s 4 -d 3 -p ack -e 40 -c 1 -i 34 -a 1 -x {4.0 0.0 12 ------- null}
h -t 0.875802757697776 -s 4 -d 3 -p ack -e 40 -c 1 -i 34 -a 1 -x {4.0 0.0 -1 ------- null}
r -t 0.879802757697776 -s 4 -d 3 -p ack -e 40 -c 1 -i 32 -a 1 -x {4.0 0.0 11 ------- null}
+ -t 0.879802757697776 -s 3 -d 0 -p ack -e 40 -c 1 -i 32 -a 1 -x {4.0 0.0 11 ------- null}
- -t 0.879802757697776 -s 3 -d 0 -p ack -e 40 -c 1 -i 32 -a 1 -x {4.0 0.0 11 ------- null}
h -t 0.879802757697776 -s 3 -d 0 -p ack -e 40 -c 1 -i 32 -a 1 -x {4.0 0.0 -1 ------- null}
r -t 0.888652900531348 -s 0 -d 3 -p exp -e 1040 -c 1 -i 33 -a 1 -x {0.0 4.0 0 ------- null}
+ -t 0.888652900531348 -s 3 -d 4 -p exp -e 1040 -c 1 -i 33 -a 1 -x {0.0 4.0 0 ------- null}
- -t 0.889082757697776 -s 3 -d 4 -p exp -e 1040 -c 1 -i 24 -a 1 -x {0.0 4.0 0 ------- null}
h -t 0.889082757697776 -s 3 -d 4 -p exp -e 1040 -c 1 -i 24 -a 1 -x {0.0 4.0 -1 ------- null}
r -t 0.889962757697776 -s 3 -d 0 -p ack -e 40 -c 1 -i 32 -a 1 -x {4.0 0.0 11 ------- null}
r -t 0.892442757697776 -s 3 -d 4 -p exp -e 1040 -c 1 -i 20 -a 1 -x {0.0 4.0 0 ------- null}
+ -t 0.892442757697776 -s 4 -d 3 -p ack -e 40 -c 1 -i 35 -a 1 -x {4.0 0.0 13 ------- null}
- -t 0.892442757697776 -s 4 -d 3 -p ack -e 40 -c 1 -i 35 -a 1 -x {4.0 0.0 13 ------- null}
h -t 0.892442757697776 -s 4 -d 3 -p ack -e 40 -c 1 -i 35 -a 1 -x {4.0 0.0 -1 ------- null}
+ -t 0.892651604086537 -s 0 -d 3 -p exp -e 1040 -c 1 -i 36 -a 1 -x {0.0 4.0 0 ------- null}
- -t 0.892651604086537 -s 0 -d 3 -p exp -e 1040 -c 1 -i 36 -a 1 -x {0.0 4.0 0 ------- null}
h -t 0.892651604086537 -s 0 -d 3 -p exp -e 1040 -c 1 -i 36 -a 1 -x {0.0 4.0 -1 ------- null}
r -t 0.896442757697776 -s 4 -d 3 -p ack -e 40 -c 1 -i 34 -a 1 -x {4.0 0.0 12 ------- null}
+ -t 0.896442757697776 -s 3 -d 0 -p ack -e 40 -c 1 -i 34 -a 1 -x {4.0 0.0 12 ------- null}
- -t 0.896442757697776 -s 3 -d 0 -p ack -e 40 -c 1 -i 34 -a 1 -x {4.0 0.0 12 ------- null}
h -t 0.896442757697776 -s 3 -d 0 -p ack -e 40 -c 1 -i 34 -a 1 -x {4.0 0.0 -1 ------- null}
- -t 0.905722757697776 -s 3 -d 4 -p exp -e 1040 -c 1 -i 25 -a 1 -x {0.0 4.0 0 ------- null}
h -t 0.905722757697776 -s 3 -d 4 -p exp -e 1040 -c 1 -i 25 -a 1 -x {0.0 4.0 -1 ------- null}
r -t 0.906602757697776 -s 3 -d 0 -p ack -e 40 -c 1 -i 34 -a 1 -x {4.0 0.0 12 ------- null}
r -t 0.906811604086537 -s 0 -d 3 -p exp -e 1040 -c 1 -i 36 -a 1 -x {0.0 4.0 0 ------- null}
+ -t 0.906811604086537 -s 3 -d 4 -p exp -e 1040 -c 1 -i 36 -a 1 -x {0.0 4.0 0 ------- null}
r -t 0.909082757697776 -s 3 -d 4 -p exp -e 1040 -c 1 -i 21 -a 1 -x {0.0 4.0 0 ------- null}
+ -t 0.909082757697776 -s 4 -d 3 -p ack -e 40 -c 1 -i 37 -a 1 -x {4.0 0.0 14 ------- null}
- -t 0.909082757697776 -s 4 -d 3 -p ack -e 40 -c 1 -i 37 -a 1 -x {4.0 0.0 14 ------- null}
h -t 0.909082757697776 -s 4 -d 3 -p ack -e 40 -c 1 -i 37 -a 1 -x {4.0 0.0 -1 ------- null}
+ -t 0.910058900290314 -s 0 -d 3 -p exp -e 1040 -c 1 -i 38 -a 1 -x {0.0 4.0 0 ------- null}
- -t 0.910058900290314 -s 0 -d 3 -p exp -e 1040 -c 1 -i 38 -a 1 -x {0.0 4.0 0 ------- null}
h -t 0.910058900290314 -s 0 -d 3 -p exp -e 1040 -c 1 -i 38 -a 1 -x {0.0 4.0 -1 ------- null}
r -t 0.913082757697776 -s 4 -d 3 -p ack -e 40 -c 1 -i 35 -a 1 -x {4.0 0.0 13 ------- null}
+ -t 0.913082757697776 -s 3 -d 0 -p ack -e 40 -c 1 -i 35 -a 1 -x {4.0 0.0 13 ------- null}
- -t 0.913082757697776 -s 3 -d 0 -p ack -e 40 -c 1 -i 35 -a 1 -x {4.0 0.0 13 ------- null}
h -t 0.913082757697776 -s 3 -d 0 -p ack -e 40 -c 1 -i 35 -a 1 -x {4.0 0.0 -1 ------- null}
- -t 0.922362757697776 -s 3 -d 4 -p exp -e 1040 -c 1 -i 27 -a 1 -x {0.0 4.0 0 ------- null}
h -t 0.922362757697776 -s 3 -d 4 -p exp -e 1040 -c 1 -i 27 -a 1 -x {0.0 4.0 -1 ------- null}
r -t 0.923242757697776 -s 3 -d 0 -p ack -e 40 -c 1 -i 35 -a 1 -x {4.0 0.0 13 ------- null}
r -t 0.924218900290314 -s 0 -d 3 -p exp -e 1040 -c 1 -i 38 -a 1 -x {0.0 4.0 0 ------- null}
+ -t 0.924218900290314 -s 3 -d 4 -p exp -e 1040 -c 1 -i 38 -a 1 -x {0.0 4.0 0 ------- null}
r -t 0.925722757697776 -s 3 -d 4 -p exp -e 1040 -c 1 -i 24 -a 1 -x {0.0 4.0 0 ------- null}
+ -t 0.925722757697776 -s 4 -d 3 -p ack -e 40 -c 1 -i 39 -a 1 -x {4.0 0.0 15 ------- null}
- -t 0.925722757697776 -s 4 -d 3 -p ack -e 40 -c 1 -i 39 -a 1 -x {4.0 0.0 15 ------- null}
h -t 0.925722757697776 -s 4 -d 3 -p ack -e 40 -c 1 -i 39 -a 1 -x {4.0 0.0 -1 ------- null}
+ -t 0.92819898248484 -s 0 -d 3 -p exp -e 1040 -c 1 -i 40 -a 1 -x {0.0 4.0 0 ------- null}
- -t 0.92819898248484 -s 0 -d 3 -p exp -e 1040 -c 1 -i 40 -a 1 -x {0.0 4.0 0 ------- null}
h -t 0.92819898248484 -s 0 -d 3 -p exp -e 1040 -c 1 -i 40 -a 1 -x {0.0 4.0 -1 ------- null}
r -t 0.929722757697776 -s 4 -d 3 -p ack -e 40 -c 1 -i 37 -a 1 -x {4.0 0.0 14 ------- null}
+ -t 0.929722757697776 -s 3 -d 0 -p ack -e 40 -c 1 -i 37 -a 1 -x {4.0 0.0 14 ------- null}
- -t 0.929722757697776 -s 3 -d 0 -p ack -e 40 -c 1 -i 37 -a 1 -x {4.0 0.0 14 ------- null}
h -t 0.929722757697776 -s 3 -d 0 -p ack -e 40 -c 1 -i 37 -a 1 -x {4.0 0.0 -1 ------- null}
- -t 0.939002757697776 -s 3 -d 4 -p exp -e 1040 -c 1 -i 28 -a 1 -x {0.0 4.0 0 ------- null}
h -t 0.939002757697776 -s 3 -d 4 -p exp -e 1040 -c 1 -i 28 -a 1 -x {0.0 4.0 -1 ------- null}
r -t 0.939882757697776 -s 3 -d 0 -p ack -e 40 -c 1 -i 37 -a 1 -x {4.0 0.0 14 ------- null}
r -t 0.94235898248484 -s 0 -d 3 -p exp -e 1040 -c 1 -i 40 -a 1 -x {0.0 4.0 0 ------- null}
+ -t 0.94235898248484 -s 3 -d 4 -p exp -e 1040 -c 1 -i 40 -a 1 -x {0.0 4.0 0 ------- null}
r -t 0.942362757697776 -s 3 -d 4 -p exp -e 1040 -c 1 -i 25 -a 1 -x {0.0 4.0 0 ------- null}
+ -t 0.942362757697776 -s 4 -d 3 -p ack -e 40 -c 1 -i 41 -a 1 -x {4.0 0.0 16 ------- null}
- -t 0.942362757697776 -s 4 -d 3 -p ack -e 40 -c 1 -i 41 -a 1 -x {4.0 0.0 16 ------- null}
h -t 0.942362757697776 -s 4 -d 3 -p ack -e 40 -c 1 -i 41 -a 1 -x {4.0 0.0 -1 ------- null}
+ -t 0.945853032775668 -s 0 -d 3 -p exp -e 1040 -c 1 -i 42 -a 1 -x {0.0 4.0 0 ------- null}
- -t 0.945853032775668 -s 0 -d 3 -p exp -e 1040 -c 1 -i 42 -a 1 -x {0.0 4.0 0 ------- null}
h -t 0.945853032775668 -s 0 -d 3 -p exp -e 1040 -c 1 -i 42 -a 1 -x {0.0 4.0 -1 ------- null}
r -t 0.946362757697776 -s 4 -d 3 -p ack -e 40 -c 1 -i 39 -a 1 -x {4.0 0.0 15 ------- null}
+ -t 0.946362757697776 -s 3 -d 0 -p ack -e 40 -c 1 -i 39 -a 1 -x {4.0 0.0 15 ------- null}
- -t 0.946362757697776 -s 3 -d 0 -p ack -e 40 -c 1 -i 39 -a 1 -x {4.0 0.0 15 ------- null}
h -t 0.946362757697776 -s 3 -d 0 -p ack -e 40 -c 1 -i 39 -a 1 -x {4.0 0.0 -1 ------- null}
- -t 0.955642757697776 -s 3 -d 4 -p exp -e 1040 -c 1 -i 30 -a 1 -x {0.0 4.0 0 ------- null}
h -t 0.955642757697776 -s 3 -d 4 -p exp -e 1040 -c 1 -i 30 -a 1 -x {0.0 4.0 -1 ------- null}
r -t 0.956522757697776 -s 3 -d 0 -p ack -e 40 -c 1 -i 39 -a 1 -x {4.0 0.0 15 ------- null}
r -t 0.959002757697776 -s 3 -d 4 -p exp -e 1040 -c 1 -i 27 -a 1 -x {0.0 4.0 0 ------- null}
+ -t 0.959002757697776 -s 4 -d 3 -p ack -e 40 -c 1 -i 43 -a 1 -x {4.0 0.0 17 ------- null}
- -t 0.959002757697776 -s 4 -d 3 -p ack -e 40 -c 1 -i 43 -a 1 -x {4.0 0.0 17 ------- null}
h -t 0.959002757697776 -s 4 -d 3 -p ack -e 40 -c 1 -i 43 -a 1 -x {4.0 0.0 -1 ------- null}