V -t * -v 1.0a5 -a 0
A -t * -n 1 -p 0 -o 0x7fffffff -c 30 -a 1
A -t * -h 1 -m 1073741823 -s 0
c -t * -i 4 -n yellow
c -t * -i 1 -n red
c -t * -i 2 -n green
c -t * -i 3 -n blue
n -t * -a 4 -s 4 -S UP -v hexagon -c pink -i pink
n -t * -a 0 -s 0 -S UP -v circle -c red -i red
n -t * -a 1 -s 1 -S UP -v circle -c green -i green
n -t * -a 2 -s 2 -S UP -v circle -c blue -i blue
n -t * -a 3 -s 3 -S UP -v square -c black -i black
l -t * -s 0 -d 3 -S UP -r 2000000 -D 0.01 -c black -o right-down
l -t * -s 1 -d 3 -S UP -r 2000000 -D 0.01 -c black -o right-center
l -t * -s 2 -d 3 -S UP -r 2000000 -D 0.01 -c black -o right-up
l -t * -s 3 -d 4 -S UP -r 500000 -D 0.02 -c black -o right
q -t * -s 4 -d 3 -a 0.5
q -t * -s 3 -d 4 -a 0.5
+ -t 10.0338027576978 -s 0 -d 3 -p exp -e 40 -c 1 -i 0 -a 1 -x {0.0 4.0 0 ------- null}
- -t 10.0338027576978 -s 0 -d 3 -p exp -e 40 -c 1 -i 0 -a 1 -x {0.0 4.0 0 ------- null}
h -t 10.0338027576978 -s 0 -d 3 -p exp -e 40 -c 1 -i 0 -a 1 -x {0.0 4.0 -1 ------- null}
r -t 10.0439627576978 -s 0 -d 3 -p exp -e 40 -c 1 -i 0 -a 1 -x {0.0 4.0 0 ------- null}
+ -t 10.0439627576978 -s 3 -d 4 -p exp -e 40 -c 1 -i 0 -a 1 -x {0.0 4.0 0 ------- null}
- -t 10.0439627576978 -s 3 -d 4 -p exp -e 40 -c 1 -i 0 -a 1 -x {0.0 4.0 0 ------- null}
h -t 10.0439627576978 -s 3 -d 4 -p exp -e 40 -c 1 -i 0 -a 1 -x {0.0 4.0 -1 ------- null}
r -t 10.0646027576978 -s 3 -d 4 -p exp -e 40 -c 1 -i 0 -a 1 -x {0.0 4.0 0 ------- null}
+ -t 10.0646027576978 -s 4 -d 3 -p ack -e 40 -c 1 -i 1 -a 1 -x {4.0 0.0 0 ------- null}
- -t 10.0646027576978 -s 4 -d 3 -p ack -e 40 -c 1 -i 1 -a 1 -x {4.0 0.0 0 ------- null}
h -t 10.0646027576978 -s 4 -d 3 -p ack -e 40 -c 1 -i 1 -a 1 -x {4.0 0.0 -1 ------- null}
r -t 10.0852427576978 -s 4 -d 3 -p ack -e 40 -c 1 -i 1 -a 1 -x {4.0 0.0 0 ------- null}
+ -t 10.0852427576978 -s 3 -d 0 -p ack -e 40 -c 1 -i 1 -a 1 -x {4.0 0.0 0 ------- null}
- -t 10.0852427576978 -s 3 -d 0 -p ack -e 40 -c 1 -i 1 -a 1 -x {4.0 0.0 0 ------- null}
h -t 10.0852427576978 -s 3 -d 0 -p ack -e 40 -c 1 -i 1 -a 1 -x {4.0 0.0 -1 ------- null}
r -t 10.0954027576978 -s 3 -d 0 -p ack -e 40 -c 1 -i 1 -a 1 -x {4.0 0.0 0 ------- null}
+ -t 10.0954027576978 -s 0 -d 3 -p exp -e 1040 -c 1 -i 2 -a 1 -x {0.0 4.0 0 ------- null}
- -t 10.0954027576978 -s 0 -d 3 -p exp -e 1040 -c 1 -i 2 -a 1 -x {0.0 4.0 0 ------- null}
h -t 10.0954027576978 -s 0 -d 3 -p exp -e 1040 -c 1 -i 2 -a 1 -x {0.0 4.0 -1 ------- null}
+ -t 10.0954027576978 -s 0 -d 3 -p exp -e 1040 -c 1 -i 3 -a 1 -x {0.0 4.0 0 ------- null}
- -t 10.0995627576978 -s 0 -d 3 -p exp -e 1040 -c 1 -i 3 -a 1 -x {0.0 4.0 0 ------- null}
h -t 10.0995627576978 -s 0 -d 3 -p exp -e 1040 -c 1 -i 3 -a 1 -x {0.0 4.0 -1 ------- null}
r -t 10.1095627576978 -s 0 -d 3 -p exp -e 1040 -c 1 -i 2 -a 1 -x {0.0 4.0 0 ------- null}
+ -t 10.1095627576978 -s 3 -d 4 -p exp -e 1040 -c 1 -i 2 -a 1 -x {0.0 4.0 0 ------- null}
- -t 10.1095627576978 -s 3 -d 4 -p exp -e 1040 -c 1 -i 2 -a 1 -x {0.0 4.0 0 ------- null}
h -t 10.1095627576978 -s 3 -d 4 -p exp -e 1040 -c 1 -i 2 -a 1 -x {0.0 4.0 -1 ------- null}
r -t 10.1137227576978 -s 0 -d 3 -p exp -e 1040 -c 1 -i 3 -a 1 -x {0.0 4.0 0 ------- null}
+ -t 10.1137227576978 -s 3 -d 4 -p exp -e 1040 -c 1 -i 3 -a 1 -x {0.0 4.0 0 ------- null}
- -t 10.1262027576978 -s 3 -d 4 -p exp -e 1040 -c 1 -i 3 -a 1 -x {0.0 4.0 0 ------- null}
h -t 10.1262027576978 -s 3 -d 4 -p exp -e 1040 -c 1 -i 3 -a 1 -x {0.0 4.0 -1 ------- null}
r -t 10.1462027576978 -s 3 -d 4 -p exp -e 1040 -c 1 -i 2 -a 1 -x {0.0 4.0 0 ------- null}
+ -t 10.1462027576978 -s 4 -d 3 -p ack -e 40 -c 1 -i 4 -a 1 -x {4.0 0.0 1 ------- null}
- -t 10.1462027576978 -s 4 -d 3 -p ack -e 40 -c 1 -i 4 -a 1 -x {4.0 0.0 1 ------- null}
h -t 10.1462027576978 -s 4 -d 3 -p ack -e 40 -c 1 -i 4 -a 1 -x {4.0 0.0 -1 ------- null}
r -t 10.1628427576978 -s 3 -d 4 -p exp -e 1040 -c 1 -i 3 -a 1 -x {0.0 4.0 0 ------- null}
+ -t 10.1628427576978 -s 4 -d 3 -p ack -e 40 -c 1 -i 5 -a 1 -x {4.0 0.0 2 ------- null}
- -t 10.1628427576978 -s 4 -d 3 -p ack -e 40 -c 1 -i 5 -a 1 -x {4.0 0.0 2 ------- null}
h -t 10.1628427576978 -s 4 -d 3 -p ack -e 40 -c 1 -i 5 -a 1 -x {4.0 0.0 -1 ------- null}
r -t 10.1668427576978 -s 4 -d 3 -p ack -e 40 -c 1 -i 4 -a 1 -x {4.0 0.0 1 ------- null}
+ -t 10.1668427576978 -s 3 -d 0 -p ack -e 40 -c 1 -i 4 -a 1 -x {4.0 0.0 1 ------- null}
- -t 10.1668427576978 -s 3 -d 0 -p ack -e 40 -c 1 -i 4 -a 1 -x {4.0 0.0 1 ------- null}
h -t 10.1668427576978 -s 3 -d 0 -p ack -e 40 -c 1 -i 4 -a 1 -x {4.0 0.0 -1 ------- null}
r -t 10.1770027576978 -s 3 -d 0 -p ack -e 40 -c 1 -i 4 -a 1 -x {4.0 0.0 1 ------- null}
+ -t 10.1770027576978 -s 0 -d 3 -p exp -e 1040 -c 1 -i 6 -a 1 -x {0.0 4.0 0 ------- null}
- -t 10.1770027576978 -s 0 -d 3 -p exp -e 1040 -c 1 -i 6 -a 1 -x {0.0 4.0 0 ------- null}
h -t 10.1770027576978 -s 0 -d 3 -p exp -e 1040 -c 1 -i 6 -a 1 -x {0.0 4.0 -1 ------- null}
+ -t 10.1770027576978 -s 0 -d 3 -p exp -e 1040 -c 1 -i 7 -a 1 -x {0.0 4.0 0 ------- null}
- -t 10.1811627576978 -s 0 -d 3 -p exp -e 1040 -c 1 -i 7 -a 1 -x {0.0 4.0 0 ------- null}
h -t 10.1811627576978 -s 0 -d 3 -p exp -e 1040 -c 1 -i 7 -a 1 -x {0.0 4.0 -1 ------- null}
r -t 10.1834827576978 -s 4 -d 3 -p ack -e 40 -c 1 -i 5 -a 1 -x {4.0 0.0 2 ------- null}
+ -t 10.1834827576978 -s 3 -d 0 -p ack -e 40 -c 1 -i 5 -a 1 -x {4.0 0.0 2 ------- null}
- -t 10.1834827576978 -s 3 -d 0 -p ack -e 40 -c 1 -i 5 -a 1 -x {4.0 0.0 2 ------- null}
h -t 10.1834827576978 -s 3 -d 0 -p ack -e 40 -c 1 -i 5 -a 1 -x {4.0 0.0 -1 ------- null}
r -t 10.1911627576978 -s 0 -d 3 -p exp -e 1040 -c 1 -i 6 -a 1 -x {0.0 4.0 0 ------- null}
+ -t 10.1911627576978 -s 3 -d 4 -p exp -e 1040 -c 1 -i 6 -a 1 -x {0.0 4.0 0 ------- null}
- -t 10.1911627576978 -s 3 -d 4 -p exp -e 1040 -c 1 -i 6 -a 1 -x {0.0 4.0 0 ------- null}
h -t 10.1911627576978 -s 3 -d 4 -p exp -e 1040 -c 1 -i 6 -a 1 -x {0.0 4.0 -1 ------- null}
r -t 10.1936427576978 -s 3 -d 0 -p ack -e 40 -c 1 -i 5 -a 1 -x {4.0 0.0 2 ------- null}
+ -t 10.1936427576978 -s 0 -d 3 -p exp -e 1040 -c 1 -i 8 -a 1 -x {0.0 4.0 0 ------- null}
- -t 10.1936427576978 -s 0 -d 3 -p exp -e 1040 -c 1 -i 8 -a 1 -x {0.0 4.0 0 ------- null}
h -t 10.1936427576978 -s 0 -d 3 -p exp -e 1040 -c 1 -i 8 -a 1 -x {0.0 4.0 -1 ------- null}
r -t 10.1953227576978 -s 0 -d 3 -p exp -e 1040 -c 1 -i 7 -a 1 -x {0.0 4.0 0 ------- null}
+ -t 10.1953227576978 -s 3 -d 4 -p exp -e 1040 -c 1 -i 7 -a 1 -x {0.0 4.0 0 ------- null}
- -t 10.2078027576978 -s 3 -d 4 -p exp -e 1040 -c 1 -i 7 -a 1 -x {0.0 4.0 0 ------- null}
h -t 10.2078027576978 -s 3 -d 4 -p exp -e 1040 -c 1 -i 7 -a 1 -x {0.0 4.0 -1 ------- null}
r -t 10.2078027576978 -s 0 -d 3 -p exp -e 1040 -c 1 -i 8 -a 1 -x {0.0 4.0 0 ------- null}
+ -t 10.2078027576978 -s 3 -d 4 -p exp -e 1040 -c 1 -i 8 -a 1 -x {0.0 4.0 0 ------- null}
+ -t 10.2086129756759 -s 0 -d 3 -p exp -e 1040 -c 1 -i 9 -a 1 -x {0.0 4.0 0 ------- null}
- -t 10.2086129756759 -s 0 -d 3 -p exp -e 1040 -c 1 -i 9 -a 1 -x {0.0 4.0 0 ------- null}
h -t 10.2086129756759 -s 0 -d 3 -p exp -e 1040 -c 1 -i 9 -a 1 -x {0.0 4.0 -1 ------- null}
r -t 10.2227729756759 -s 0 -d 3 -p exp -e 1040 -c 1 -i 9 -a 1 -x {0.0 4.0 0 ------- null}
+ -t 10.2227729756759 -s 3 -d 4 -p exp -e 1040 -c 1 -i 9 -a 1 -x {0.0 4.0 0 ------- null}
- -t 10.2244427576978 -s 3 -d 4 -p exp -e 1040 -c 1 -i 8 -a 1 -x {0.0 4.0 0 ------- null}
h -t 10.2244427576978 -s 3 -d 4 -p exp -e 1040 -c 1 -i 8 -a 1 -x {0.0 4.0 -1 ------- null}
r -t 10.2278027576978 -s 3 -d 4 -p exp -e 1040 -c 1 -i 6 -a 1 -x {0.0 4.0 0 ------- null}
+ -t 10.2278027576978 -s 4 -d 3 -p ack -e 40 -c 1 -i 10 -a 1 -x {4.0 0.0 3 ------- null}
- -t 10.2278027576978 -s 4 -d 3 -p ack -e 40 -c 1 -i 10 -a 1 -x {4.0 0.0 3 ------- null}
h -t 10.2278027576978 -s 4 -d 3 -p ack -e 40 -c 1 -i 10 -a 1 -x {4.0 0.0 -1 ------- null}
- -t 10.2410827576978 -s 3 -d 4 -p exp -e 1040 -c 1 -i 9 -a 1 -x {0.0 4.0 0 ------- null}
h -t 10.2410827576978 -s 3 -d 4 -p exp -e 1040 -c 1 -i 9 -a 1 -x {0.0 4.0 -1 ------- null}
r -t 10.2444427576978 -s 3 -d 4 -p exp -e 1040 -c 1 -i 7 -a 1 -x {0.0 4.0 0 ------- null}
+ -t 10.2444427576978 -s 4 -d 3 -p ack -e 40 -c 1 -i 11 -a 1 -x {4.0 0.0 4 ------- null}
- -t 10.2444427576978 -s 4 -d 3 -p ack -e 40 -c 1 -i 11 -a 1 -x {4.0 0.0 4 ------- null}
h -t 10.2444427576978 -s 4 -d 3 -p ack -e 40 -c 1 -i 11 -a 1 -x {4.0 0.0 -1 ------- null}
r -t 10.2484427576978 -s 4 -d 3 -p ack -e 40 -c 1 -i 10 -a 1 -x {4.0 0.0 3 ------- null}
+ -t 10.2484427576978 -s 3 -d 0 -p ack -e 40 -c 1 -i 10 -a 1 -x {4.0 0.0 3 ------- null}
- -t 10.2484427576978 -s 3 -d 0 -p ack -e 40 -c 1 -i 10 -a 1 -x {4.0 0.0 3 ------- null}
h -t 10.2484427576978 -s 3 -d 0 -p ack -e 40 -c 1 -i 10 -a 1 -x {4.0 0.0 -1 ------- null}
r -t 10.2586027576978 -s 3 -d 0 -p ack -e 40 -c 1 -i 10 -a 1 -x {4.0 0.0 3 ------- null}
+ -t 10.2586027576978 -s 0 -d 3 -p exp -e 1040 -c 1 -i 12 -a 1 -x {0.0 4.0 0 ------- null}
- -t 10.2586027576978 -s 0 -d 3 -p exp -e 1040 -c 1 -i 12 -a 1 -x {0.0 4.0 0 ------- null}
h -t 10.2586027576978 -s 0 -d 3 -p exp -e 1040 -c 1 -i 12 -a 1 -x {0.0 4.0 -1 ------- null}
r -t 10.2610827576978 -s 3 -d 4 -p exp -e 1040 -c 1 -i 8 -a 1 -x {0.0 4.0 0 ------- null}
+ -t 10.2610827576978 -s 4 -d 3 -p ack -e 40 -c 1 -i 13 -a 1 -x {4.0 0.0 5 ------- null}
- -t 10.2610827576978 -s 4 -d 3 -p ack -e 40 -c 1 -i 13 -a 1 -x {4.0 0.0 5 ------- null}
h -t 10.2610827576978 -s 4 -d 3 -p ack -e 40 -c 1 -i 13 -a 1 -x {4.0 0.0 -1 ------- null}
r -t 10.2650827576978 -s 4 -d 3 -p ack -e 40 -c 1 -i 11 -a 1 -x {4.0 0.0 4 ------- null}
+ -t 10.2650827576978 -s 3 -d 0 -p ack -e 40 -c 1 -i 11 -a 1 -x {4.0 0.0 4 ------- null}
- -t 10.2650827576978 -s 3 -d 0 -p ack -e 40 -c 1 -i 11 -a 1 -x {4.0 0.0 4 ------- null}
h -t 10.2650827576978 -s 3 -d 0 -p ack -e 40 -c 1 -i 11 -a 1 -x {4.0 0.0 -1 ------- null}
r -t 10.2727627576978 -s 0 -d 3 -p exp -e 1040 -c 1 -i 12 -a 1 -x {0.0 4.0 0 ------- null}
+ -t 10.2727627576978 -s 3 -d 4 -p exp -e 1040 -c 1 -i 12 -a 1 -x {0.0 4.0 0 ------- null}
- -t 10.2727627576978 -s 3 -d 4 -p exp -e 1040 -c 1 -i 12 -a 1 -x {0.0 4.0 0 ------- null}
h -t 10.2727627576978 -s 3 -d 4 -p exp -e 1040 -c 1 -i 12 -a 1 -x {0.0 4.0 -1 ------- null}
r -t 10.2752427576978 -s 3 -d 0 -p ack -e 40 -c 1 -i 11 -a 1 -x {4.0 0.0 4 ------- null}
r -t 10.2777227576978 -s 3 -d 4 -p exp -e 1040 -c 1 -i 9 -a 1 -x {0.0 4.0 0 ------- null}
+ -t 10.2777227576978 -s 4 -d 3 -p ack -e 40 -c 1 -i 14 -a 1 -x {4.0 0.0 6 ------- null}
- -t 10.2777227576978 -s 4 -d 3 -p ack -e 40 -c 1 -i 14 -a 1 -x {4.0 0.0 6 ------- null}
h -t 10.2777227576978 -s 4 -d 3 -p ack -e 40 -c 1 -i 14 -a 1 -x {4.0 0.0 -1 ------- null}
+ -t 10.2792293857658 -s 0 -d 3 -p exp -e 1040 -c 1 -i 15 -a 1 -x {0.0 4.0 0 ------- null}
- -t 10.2792293857658 -s 0 -d 3 -p exp -e 1040 -c 1 -i 15 -a 1 -x {0.0 4.0 0 ------- null}
h -t 10.2792293857658 -s 0 -d 3 -p exp -e 1040 -c 1 -i 15 -a 1 -x {0.0 4.0 -1 ------- null}
r -t 10.2817227576978 -s 4 -d 3 -p ack -e 40 -c 1 -i 13 -a 1 -x {4.0 0.0 5 ------- null}
+ -t 10.2817227576978 -s 3 -d 0 -p ack -e 40 -c 1 -i 13 -a 1 -x {4.0 0.0 5 ------- null}
- -t 10.2817227576978 -s 3 -d 0 -p ack -e 40 -c 1 -i 13 -a 1 -x {4.0 0.0 5 ------- null}
h -t 10.2817227576978 -s 3 -d 0 -p ack -e 40 -c 1 -i 13 -a 1 -x {4.0 0.0 -1 ------- null}
r -t 10.2918827576978 -s 3 -d 0 -p ack -e 40 -c 1 -i 13 -a 1 -x {4.0 0.0 5 ------- null}
r -t 10.2933893857658 -s 0 -d 3 -p exp -e 1040 -c 1 -i 15 -a 1 -x {0.0 4.0 0 ------- null}
+ -t 10.2933893857658 -s 3 -d 4 -p exp -e 1040 -c 1 -i 15 -a 1 -x {0.0 4.0 0 ------- null}
- -t 10.2933893857658 -s 3 -d 4 -p exp -e 1040 -c 1 -i 15 -a 1 -x {0.0 4.0 0 ------- null}
h -t 10.2933893857658 -s 3 -d 4 -p exp -e 1040 -c 1 -i 15 -a 1 -x {0.0 4.0 -1 ------- null}
r -t 10.2983627576978 -s 4 -d 3 -p ack -e 40 -c 1 -i 14 -a 1 -x {4.0 0.0 6 ------- null}
+ -t 10.2983627576978 -s 3 -d 0 -p ack -e 40 -c 1 -i 14 -a 1 -x {4.0 0.0 6 ------- null}
- -t 10.2983627576978 -s 3 -d 0 -p ack -e 40 -c 1 -i 14 -a 1 -x {4.0 0.0 6 ------- null}
h -t 10.2983627576978 -s 3 -d 0 -p ack -e 40 -c 1 -i 14 -a 1 -x {4.0 0.0 -1 ------- null}
r -t 10.3085227576978 -s 3 -d 0 -p ack -e 40 -c 1 -i 14 -a 1 -x {4.0 0.0 6 ------- null}
r -t 10.3094027576978 -s 3 -d 4 -p exp -e 1040 -c 1 -i 12 -a 1 -x {0.0 4.0 0 ------- null}
+ -t 10.3094027576978 -s 4 -d 3 -p ack -e 40 -c 1 -i 16 -a 1 -x {4.0 0.0 7 ------- null}
- -t 10.3094027576978 -s 4 -d 3 -p ack -e 40 -c 1 -i 16 -a 1 -x {4.0 0.0 7 ------- null}
h -t 10.3094027576978 -s 4 -d 3 -p ack -e 40 -c 1 -i 16 -a 1 -x {4.0 0.0 -1 ------- null}
+ -t 10.3137241947024 -s 0 -d 3 -p exp -e 1040 -c 1 -i 17 -a 1 -x {0.0 4.0 0 ------- null}
- -t 10.3137241947024 -s 0 -d 3 -p exp -e 1040 -c 1 -i 17 -a 1 -x {0.0 4.0 0 ------- null}
h -t 10.3137241947024 -s 0 -d 3 -p exp -e 1040 -c 1 -i 17 -a 1 -x {0.0 4.0 -1 ------- null}
r -t 10.3278841947024 -s 0 -d 3 -p exp -e 1040 -c 1 -i 17 -a 1 -x {0.0 4.0 0 ------- null}
+ -t 10.3278841947024 -s 3 -d 4 -p exp -e 1040 -c 1 -i 17 -a 1 -x {0.0 4.0 0 ------- null}
- -t 10.3278841947024 -s 3 -d 4 -p exp -e 1040 -c 1 -i 17 -a 1 -x {0.0 4.0 0 ------- null}
h -t 10.3278841947024 -s 3 -d 4 -p exp -e 1040 -c 1 -i 17 -a 1 -x {0.0 4.0 -1 ------- null}
r -t 10.3300293857658 -s 3 -d 4 -p exp -e 1040 -c 1 -i 15 -a 1 -x {0.0 4.0 0 ------- null}
+ -t 10.3300293857658 -s 4 -d 3 -p ack -e 40 -c 1 -i 18 -a 1 -x {4.0 0.0 8 ------- null}
- -t 10.3300293857658 -s 4 -d 3 -p ack -e 40 -c 1 -i 18 -a 1 -x {4.0 0.0 8 ------- null}
h -t 10.3300293857658 -s 4 -d 3 -p ack -e 40 -c 1 -i 18 -a 1 -x {4.0 0.0 -1 ------- null}
r -t 10.3300427576978 -s 4 -d 3 -p ack -e 40 -c 1 -i 16 -a 1 -x {4.0 0.0 7 ------- null}
+ -t 10.3300427576978 -s 3 -d 0 -p ack -e 40 -c 1 -i 16 -a 1 -x {4.0 0.0 7 ------- null}
- -t 10.3300427576978 -s 3 -d 0 -p ack -e 40 -c 1 -i 16 -a 1 -x {4.0 0.0 7 ------- null}
h -t 10.3300427576978 -s 3 -d 0 -p ack -e 40 -c 1 -i 16 -a 1 -x {4.0 0.0 -1 ------- null}
r -t 10.3402027576978 -s 3 -d 0 -p ack -e 40 -c 1 -i 16 -a 1 -x {4.0 0.0 7 ------- null}
+ -t 10.3480875155876 -s 0 -d 3 -p exp -e 1040 -c 1 -i 19 -a 1 -x {0.0 4.0 0 ------- null}
- -t 10.3480875155876 -s 0 -d 3 -p exp -e 1040 -c 1 -i 19 -a 1 -x {0.0 4.0 0 ------- null}
h -t 10.3480875155876 -s 0 -d 3 -p exp -e 1040 -c 1 -i 19 -a 1 -x {0.0 4.0 -1 ------- null}
r -t 10.3506693857658 -s 4 -d 3 -p ack -e 40 -c 1 -i 18 -a 1 -x {4.0 0.0 8 ------- null}
+ -t 10.3506693857658 -s 3 -d 0 -p ack -e 40 -c 1 -i 18 -a 1 -x {4.0 0.0 8 ------- null}
- -t 10.3506693857658 -s 3 -d 0 -p ack -e 40 -c 1 -i 18 -a 1 -x {4.0 0.0 8 ------- null}
h -t 10.3506693857658 -s 3 -d 0 -p ack -e 40 -c 1 -i 18 -a 1 -x {4.0 0.0 -1 ------- null}
r -t 10.3608293857658 -s 3 -d 0 -p ack -e 40 -c 1 -i 18 -a 1 -x {4.0 0.0 8 ------- null}
r -t 10.3622475155876 -s 0 -d 3 -p exp -e 1040 -c 1 -i 19 -a 1 -x {0.0 4.0 0 ------- null}
+ -t 10.3622475155876 -s 3 -d 4 -p exp -e 1040 -c 1 -i 19 -a 1 -x {0.0 4.0 0 ------- null}
- -t 10.3622475155876 -s 3 -d 4 -p exp -e 1040 -c 1 -i 19 -a 1 -x {0.0 4.0 0 ------- null}
h -t 10.3622475155876 -s 3 -d 4 -p exp -e 1040 -c 1 -i 19 -a 1 -x {0.0 4.0 -1 ------- null}
r -t 10.3645241947024 -s 3 -d 4 -p exp -e 1040 -c 1 -i 17 -a 1 -x {0.0 4.0 0 ------- null}
+ -t 10.3645241947024 -s 4 -d 3 -p ack -e 40 -c 1 -i 20 -a 1 -x {4.0 0.0 9 ------- null}
- -t 10.3645241947024 -s 4 -d 3 -p ack -e 40 -c 1 -i 20 -a 1 -x {4.0 0.0 9 ------- null}
h -t 10.3645241947024 -s 4 -d 3 -p ack -e 40 -c 1 -i 20 -a 1 -x {4.0 0.0 -1 ------- null}
+ -t 10.381835937547 -s 0 -d 3 -p exp -e 1040 -c 1 -i 21 -a 1 -x {0.0 4.0 0 ------- null}
- -t 10.381835937547 -s 0 -d 3 -p exp -e 1040 -c 1 -i 21 -a 1 -x {0.0 4.0 0 ------- null}
h -t 10.381835937547 -s 0 -d 3 -p exp -e 1040 -c 1 -i 21 -a 1 -x {0.0 4.0 -1 ------- null}
r -t 10.3851641947024 -s 4 -d 3 -p ack -e 40 -c 1 -i 20 -a 1 -x {4.0 0.0 9 ------- null}
+ -t 10.3851641947024 -s 3 -d 0 -p ack -e 40 -c 1 -i 20 -a 1 -x {4.0 0.0 9 ------- null}
- -t 10.3851641947024 -s 3 -d 0 -p ack -e 40 -c 1 -i 20 -a 1 -x {4.0 0.0 9 ------- null}
h -t 10.3851641947024 -s 3 -d 0 -p ack -e 40 -c 1 -i 20 -a 1 -x {4.0 0.0 -1 ------- null}
r -t 10.3953241947024 -s 3 -d 0 -p ack -e 40 -c 1 -i 20 -a 1 -x {4.0 0.0 9 ------- null}
r -t 10.395995937547 -s 0 -d 3 -p exp -e 1040 -c 1 -i 21 -a 1 -x {0.0 4.0 0 ------- null}
+ -t 10.395995937547 -s 3 -d 4 -p exp -e 1040 -c 1 -i 21 -a 1 -x {0.0 4.0 0 ------- null}
- -t 10.395995937547 -s 3 -d 4 -p exp -e 1040 -c 1 -i 21 -a 1 -x {0.0 4.0 0 ------- null}
h -t 10.395995937547 -s 3 -d 4 -p exp -e 1040 -c 1 -i 21 -a 1 -x {0.0 4.0 -1 ------- null}
r -t 10.3988875155876 -s 3 -d 4 -p exp -e 1040 -c 1 -i 19 -a 1 -x {0.0 4.0 0 ------- null}
+ -t 10.3988875155876 -s 4 -d 3 -p ack -e 40 -c 1 -i 22 -a 1 -x {4.0 0.0 10 ------- null}
- -t 10.3988875155876 -s 4 -d 3 -p ack -e 40 -c 1 -i 22 -a 1 -x {4.0 0.0 10 ------- null}
h -t 10.3988875155876 -s 4 -d 3 -p ack -e 40 -c 1 -i 22 -a 1 -x {4.0 0.0 -1 ------- null}
+ -t 10.4169630609063 -s 0 -d 3 -p exp -e 1040 -c 1 -i 23 -a 1 -x {0.0 4.0 0 ------- null}
- -t 10.4169630609063 -s 0 -d 3 -p exp -e 1040 -c 1 -i 23 -a 1 -x {0.0 4.0 0 ------- null}
h -t 10.4169630609063 -s 0 -d 3 -p exp -e 1040 -c 1 -i 23 -a 1 -x {0.0 4.0 -1 ------- null}
r -t 10.4195275155876 -s 4 -d 3 -p ack -e 40 -c 1 -i 22 -a 1 -x {4.0 0.0 10 ------- null}
+ -t 10.4195275155876 -s 3 -d 0 -p ack -e 40 -c 1 -i 22 -a 1 -x {4.0 0.0 10 ------- null}
- -t 10.4195275155876 -s 3 -d 0 -p ack -e 40 -c 1 -i 22 -a 1 -x {4.0 0.0 10 ------- null}
h -t 10.4195275155876 -s 3 -d 0 -p ack -e 40 -c 1 -i 22 -a 1 -x {4.0 0.0 -1 ------- null}
r -t 10.4296875155876 -s 3 -d 0 -p ack -e 40 -c 1 -i 22 -a 1 -x {4.0 0.0 10 ------- null}
r -t 10.4311230609063 -s 0 -d 3 -p exp -e 1040 -c 1 -i 23 -a 1 -x {0.0 4.0 0 ------- null}
+ -t 10.4311230609063 -s 3 -d 4 -p exp -e 1040 -c 1 -i 23 -a 1 -x {0.0 4.0 0 ------- null}
- -t 10.4311230609063 -s 3 -d 4 -p exp -e 1040 -c 1 -i 23 -a 1 -x {0.0 4.0 0 ------- null}
h -t 10.4311230609063 -s 3 -d 4 -p exp -e 1040 -c 1 -i 23 -a 1 -x {0.0 4.0 -1 ------- null}
r -t 10.432635937547 -s 3 -d 4 -p exp -e 1040 -c 1 -i 21 -a 1 -x {0.0 4.0 0 ------- null}
+ -t 10.432635937547 -s 4 -d 3 -p ack -e 40 -c 1 -i 24 -a 1 -x {4.0 0.0 11 ------- null}
- -t 10.432635937547 -s 4 -d 3 -p ack -e 40 -c 1 -i 24 -a 1 -x {4.0 0.0 11 ------- null}
h -t 10.432635937547 -s 4 -d 3 -p ack -e 40 -c 1 -i 24 -a 1 -x {4.0 0.0 -1 ------- null}
+ -t 10.4507242788566 -s 0 -d 3 -p exp -e 1040 -c 1 -i 25 -a 1 -x {0.0 4.0 0 ------- null}
- -t 10.4507242788566 -s 0 -d 3 -p exp -e 1040 -c 1 -i 25 -a 1 -x {0.0 4.0 0 ------- null}
h -t 10.4507242788566 -s 0 -d 3 -p exp -e 1040 -c 1 -i 25 -a 1 -x {0.0 4.0 -1 ------- null}
r -t 10.453275937547 -s 4 -d 3 -p ack -e 40 -c 1 -i 24 -a 1 -x {4.0 0.0 11 ------- null}
+ -t 10.453275937547 -s 3 -d 0 -p ack -e 40 -c 1 -i 24 -a 1 -x {4.0 0.0 11 ------- null}
- -t 10.453275937547 -s 3 -d 0 -p ack -e 40 -c 1 -i 24 -a 1 -x {4.0 0.0 11 ------- null}
h -t 10.453275937547 -s 3 -d 0 -p ack -e 40 -c 1 -i 24 -a 1 -x {4.0 0.0 -1 ------- null}
r -t 10.463435937547 -s 3 -d 0 -p ack -e 40 -c 1 -i 24 -a 1 -x {4.0 0.0 11 ------- null}
r -t 10.4648842788566 -s 0 -d 3 -p exp -e 1040 -c 1 -i 25 -a 1 -x {0.0 4.0 0 ------- null}
+ -t 10.4648842788566 -s 3 -d 4 -p exp -e 1040 -c 1 -i 25 -a 1 -x {0.0 4.0 0 ------- null}
- -t 10.4648842788566 -s 3 -d 4 -p exp -e 1040 -c 1 -i 25 -a 1 -x {0.0 4.0 0 ------- null}
h -t 10.4648842788566 -s 3 -d 4 -p exp -e 1040 -c 1 -i 25 -a 1 -x {0.0 4.0 -1 ------- null}
r -t 10.4677630609063 -s 3 -d 4 -p exp -e 1040 -c 1 -i 23 -a 1 -x {0.0 4.0 0 ------- null}
+ -t 10.4677630609063 -s 4 -d 3 -p ack -e 40 -c 1 -i 26 -a 1 -x {4.0 0.0 12 ------- null}
- -t 10.4677630609063 -s 4 -d 3 -p ack -e 40 -c 1 -i 26 -a 1 -x {4.0 0.0 12 ------- null}
h -t 10.4677630609063 -s 4 -d 3 -p ack -e 40 -c 1 -i 26 -a 1 -x {4.0 0.0 -1 ------- null}
+ -t 10.4845957833049 -s 0 -d 3 -p exp -e 1040 -c 1 -i 27 -a 1 -x {0.0 4.0 0 ------- null}
- -t 10.4845957833049 -s 0 -d 3 -p exp -e 1040 -c 1 -i 27 -a 1 -x {0.0 4.0 0 ------- null}
h -t 10.4845957833049 -s 0 -d 3 -p exp -e 1040 -c 1 -i 27 -a 1 -x {0.0 4.0 -1 ------- null}
r -t 10.4884030609063 -s 4 -d 3 -p ack -e 40 -c 1 -i 26 -a 1 -x {4.0 0.0 12 ------- null}
+ -t 10.4884030609063 -s 3 -d 0 -p ack -e 40 -c 1 -i 26 -a 1 -x {4.0 0.0 12 ------- null}
- -t 10.4884030609063 -s 3 -d 0 -p ack -e 40 -c 1 -i 26 -a 1 -x {4.0 0.0 12 ------- null}
h -t 10.4884030609063 -s 3 -d 0 -p ack -e 40 -c 1 -i 26 -a 1 -x {4.0 0.0 -1 ------- null}
r -t 10.4985630609063 -s 3 -d 0 -p ack -e 40 -c 1 -i 26 -a 1 -x {4.0 0.0 12 ------- null}
r -t 10.4987557833049 -s 0 -d 3 -p exp -e 1040 -c 1 -i 27 -a 1 -x {0.0 4.0 0 ------- null}
+ -t 10.4987557833049 -s 3 -d 4 -p exp -e 1040 -c 1 -i 27 -a 1 -x {0.0 4.0 0 ------- null}
- -t 10.4987557833049 -s 3 -d 4 -p exp -e 1040 -c 1 -i 27 -a 1 -x {0.0 4.0 0 ------- null}
h -t 10.4987557833049 -s 3 -d 4 -p exp -e 1040 -c 1 -i 27 -a 1 -x {0.0 4.0 -1 ------- null}
r -t 10.5015242788566 -s 3 -d 4 -p exp -e 1040 -c 1 -i 25 -a 1 -x {0.0 4.0 0 ------- null}
+ -t 10.5015242788566 -s 4 -d 3 -p ack -e 40 -c 1 -i 28 -a 1 -x {4.0 0.0 13 ------- null}
- -t 10.5015242788566 -s 4 -d 3 -p ack -e 40 -c 1 -i 28 -a 1 -x {4.0 0.0 13 ------- null}
h -t 10.5015242788566 -s 4 -d 3 -p ack -e 40 -c 1 -i 28 -a 1 -x {4.0 0.0 -1 ------- null}
+ -t 10.5190983706654 -s 0 -d 3 -p exp -e 1040 -c 1 -i 29 -a 1 -x {0.0 4.0 0 ------- null}
- -t 10.5190983706654 -s 0 -d 3 -p exp -e 1040 -c 1 -i 29 -a 1 -x {0.0 4.0 0 ------- null}
h -t 10.5190983706654 -s 0 -d 3 -p exp -e 1040 -c 1 -i 29 -a 1 -x {0.0 4.0 -1 ------- null}
r -t 10.5221642788566 -s 4 -d 3 -p ack -e 40 -c 1 -i 28 -a 1 -x {4.0 0.0 13 ------- null}
+ -t 10.5221642788566 -s 3 -d 0 -p ack -e 40 -c 1 -i 28 -a 1 -x {4.0 0.0 13 ------- null}
- -t 10.5221642788566 -s 3 -d 0 -p ack -e 40 -c 1 -i 28 -a 1 -x {4.0 0.0 13 ------- null}
h -t 10.5221642788566 -s 3 -d 0 -p ack -e 40 -c 1 -i 28 -a 1 -x {4.0 0.0 -1 ------- null}
r -t 10.5323242788566 -s 3 -d 0 -p ack -e 40 -c 1 -i 28 -a 1 -x {4.0 0.0 13 ------- null}
r -t 10.5332583706654 -s 0 -d 3 -p exp -e 1040 -c 1 -i 29 -a 1 -x {0.0 4.0 0 ------- null}
+ -t 10.5332583706654 -s 3 -d 4 -p exp -e 1040 -c 1 -i 29 -a 1 -x {0.0 4.0 0 ------- null}
- -t 10.5332583706654 -s 3 -d 4 -p exp -e 1040 -c 1 -i 29 -a 1 -x {0.0 4.0 0 ------- null}
h -t 10.5332583706654 -s 3 -d 4 -p exp -e 1040 -c 1 -i 29 -a 1 -x {0.0 4.0 -1 ------- null}
r -t 10.5353957833049 -s 3 -d 4 -p exp -e 1040 -c 1 -i 27 -a 1 -x {0.0 4.0 0 ------- null}
+ -t 10.5353957833049 -s 4 -d 3 -p ack -e 40 -c 1 -i 30 -a 1 -x {4.0 0.0 14 ------- null}
- -t 10.5353957833049 -s 4 -d 3 -p ack -e 40 -c 1 -i 30 -a 1 -x {4.0 0.0 14 ------- null}
h -t 10.5353957833049 -s 4 -d 3 -p ack -e 40 -c 1 -i 30 -a 1 -x {4.0 0.0 -1 ------- null}
+ -t 10.5536041975149 -s 0 -d 3 -p exp -e 1040 -c 1 -i 31 -a 1 -x {0.0 4.0 0 ------- null}
- -t 10.5536041975149 -s 0 -d 3 -p exp -e 1040 -c 1 -i 31 -a 1 -x {0.0 4.0 0 ------- null}
h -t 10.5536041975149 -s 0 -d 3 -p exp -e 1040 -c 1 -i 31 -a 1 -x {0.0 4.0 -1 ------- null}
r -t 10.5560357833049 -s 4 -d 3 -p ack -e 40 -c 1 -i 30 -a 1 -x {4.0 0.0 14 ------- null}
+ -t 10.5560357833049 -s 3 -d 0 -p ack -e 40 -c 1 -i 30 -a 1 -x {4.0 0.0 14 ------- null}
- -t 10.5560357833049 -s 3 -d 0 -p ack -e 40 -c 1 -i 30 -a 1 -x {4.0 0.0 14 ------- null}
h -t 10.5560357833049 -s 3 -d 0 -p ack -e 40 -c 1 -i 30 -a 1 -x {4.0 0.0 -1 ------- null}
r -t 10.5661957833049 -s 3 -d 0 -p ack -e 40 -c 1 -i 30 -a 1 -x {4.0 0.0 14 ------- null}
r -t 10.5677641975149 -s 0 -d 3 -p exp -e 1040 -c 1 -i 31 -a 1 -x {0.0 4.0 0 ------- null}
+ -t 10.5677641975149 -s 3 -d 4 -p exp -e 1040 -c 1 -i 31 -a 1 -x {0.0 4.0 0 ------- null}
- -t 10.5677641975149 -s 3 -d 4 -p exp -e 1040 -c 1 -i 31 -a 1 -x {0.0 4.0 0 ------- null}
h -t 10.5677641975149 -s 3 -d 4 -p exp -e 1040 -c 1 -i 31 -a 1 -x {0.0 4.0 -1 ------- null}
r -t 10.5698983706654 -s 3 -d 4 -p exp -e 1040 -c 1 -i 29 -a 1 -x {0.0 4.0 0 ------- null}
+ -t 10.5698983706654 -s 4 -d 3 -p ack -e 40 -c 1 -i 32 -a 1 -x {4.0 0.0 15 ------- null}
- -t 10.5698983706654 -s 4 -d 3 -p ack -e 40 -c 1 -i 32 -a 1 -x {4.0 0.0 15 ------- null}
h -t 10.5698983706654 -s 4 -d 3 -p ack -e 40 -c 1 -i 32 -a 1 -x {4.0 0.0 -1 ------- null}
+ -t 10.5873236078845 -s 0 -d 3 -p exp -e 1040 -c 1 -i 33 -a 1 -x {0.0 4.0 0 ------- null}
- -t 10.5873236078845 -s 0 -d 3 -p exp -e 1040 -c 1 -i 33 -a 1 -x {0.0 4.0 0 ------- null}
h -t 10.5873236078845 -s 0 -d 3 -p exp -e 1040 -c 1 -i 33 -a 1 -x {0.0 4.0 -1 ------- null}
r -t 10.5905383706654 -s 4 -d 3 -p ack -e 40 -c 1 -i 32 -a 1 -x {4.0 0.0 15 ------- null}
+ -t 10.5905383706654 -s 3 -d 0 -p ack -e 40 -c 1 -i 32 -a 1 -x {4.0 0.0 15 ------- null}
- -t 10.5905383706654 -s 3 -d 0 -p ack -e 40 -c 1 -i 32 -a 1 -x {4.0 0.0 15 ------- null}
h -t 10.5905383706654 -s 3 -d 0 -p ack -e 40 -c 1 -i 32 -a 1 -x {4.0 0.0 -1 ------- null}
r -t 10.6006983706654 -s 3 -d 0 -p ack -e 40 -c 1 -i 32 -a 1 -x {4.0 0.0 15 ------- null}
r -t 10.6014836078845 -s 0 -d 3 -p exp -e 1040 -c 1 -i 33 -a 1 -x {0.0 4.0 0 ------- null}
+ -t 10.6014836078845 -s 3 -d 4 -p exp -e 1040 -c 1 -i 33 -a 1 -x {0.0 4.0 0 ------- null}
- -t 10.6014836078845 -s 3 -d 4 -p exp -e 1040 -c 1 -i 33 -a 1 -x {0.0 4.0 0 ------- null}
h -t 10.6014836078845 -s 3 -d 4 -p exp -e 1040 -c 1 -i 33 -a 1 -x {0.0 4.0 -1 ------- null}
r -t 10.6044041975149 -s 3 -d 4 -p exp -e 1040 -c 1 -i 31 -a 1 -x {0.0 4.0 0 ------- null}
+ -t 10.6044041975149 -s 4 -d 3 -p ack -e 40 -c 1 -i 34 -a 1 -x {4.0 0.0 16 ------- null}
- -t 10.6044041975149 -s 4 -d 3 -p ack -e 40 -c 1 -i 34 -a 1 -x {4.0 0.0 16 ------- null}
h -t 10.6044041975149 -s 4 -d 3 -p ack -e 40 -c 1 -i 34 -a 1 -x {4.0 0.0 -1 ------- null}
+ -t 10.6210386284402 -s 0 -d 3 -p exp -e 1040 -c 1 -i 35 -a 1 -x {0.0 4.0 0 ------- null}
- -t 10.6210386284402 -s 0 -d 3 -p exp -e 1040 -c 1 -i 35 -a 1 -x {0.0 4.0 0 ------- null}
h -t 10.6210386284402 -s 0 -d 3 -p exp -e 1040 -c 1 -i 35 -a 1 -x {0.0 4.0 -1 ------- null}
r -t 10.6250441975149 -s 4 -d 3 -p ack -e 40 -c 1 -i 34 -a 1 -x {4.0 0.0 16 ------- null}
+ -t 10.6250441975149 -s 3 -d 0 -p ack -e 40 -c 1 -i 34 -a 1 -x {4.0 0.0 16 ------- null}
- -t 10.6250441975149 -s 3 -d 0 -p ack -e 40 -c 1 -i 34 -a 1 -x {4.0 0.0 16 ------- null}
h -t 10.6250441975149 -s 3 -d 0 -p ack -e 40 -c 1 -i 34 -a 1 -x {4.0 0.0 -1 ------- null}
r -t 10.6351986284402 -s 0 -d 3 -p exp -e 1040 -c 1 -i 35 -a 1 -x {0.0 4.0 0 ------- null}
+ -t 10.6351986284402 -s 3 -d 4 -p exp -e 1040 -c 1 -i 35 -a 1 -x {0.0 4.0 0 ------- null}
- -t 10.6351986284402 -s 3 -d 4 -p exp -e 1040 -c 1 -i 35 -a 1 -x {0.0 4.0 0 ------- null}
h -t 10.6351986284402 -s 3 -d 4 -p exp -e 1040 -c 1 -i 35 -a 1 -x {0.0 4.0 -1 ------- null}
r -t 10.6352041975149 -s 3 -d 0 -p ack -e 40 -c 1 -i 34 -a 1 -x {4.0 0.0 16 ------- null}
r -t 10.6381236078845 -s 3 -d 4 -p exp -e 1040 -c 1 -i 33 -a 1 -x {0.0 4.0 0 ------- null}
+ -t 10.6381236078845 -s 4 -d 3 -p ack -e 40 -c 1 -i 36 -a 1 -x {4.0 0.0 17 ------- null}
- -t 10.6381236078845 -s 4 -d 3 -p ack -e 40 -c 1 -i 36 -a 1 -x {4.0 0.0 17 ------- null}
h -t 10.6381236078845 -s 4 -d 3 -p ack -e 40 -c 1 -i 36 -a 1 -x {4.0 0.0 -1 ------- null}
+ -t 10.6574790228388 -s 0 -d 3 -p exp -e 1040 -c 1 -i 37 -a 1 -x {0.0 4.0 0 ------- null}
- -t 10.6574790228388 -s 0 -d 3 -p exp -e 1040 -c 1 -i 37 -a 1 -x {0.0 4.0 0 ------- null}
h -t 10.6574790228388 -s 0 -d 3 -p exp -e 1040 -c 1 -i 37 -a 1 -x {0.0 4.0 -1 ------- null}
r -t 10.6587636078845 -s 4 -d 3 -p ack -e 40 -c 1 -i 36 -a 1 -x {4.0 0.0 17 ------- null}
+ -t 10.6587636078845 -s 3 -d 0 -p ack -e 40 -c 1 -i 36 -a 1 -x {4.0 0.0 17 ------- null}
- -t 10.6587636078845 -s 3 -d 0 -p ack -e 40 -c 1 -i 36 -a 1 -x {4.0 0.0 17 ------- null}
h -t 10.6587636078845 -s 3 -d 0 -p ack -e 40 -c 1 -i 36 -a 1 -x {4.0 0.0 -1 ------- null}
r -t 10.6689236078845 -s 3 -d 0 -p ack -e 40 -c 1 -i 36 -a 1 -x {4.0 0.0 17 ------- null}
r -t 10.6716390228388 -s 0 -d 3 -p exp -e 1040 -c 1 -i 37 -a 1 -x {0.0 4.0 0 ------- null}
+ -t 10.6716390228388 -s 3 -d 4 -p exp -e 1040 -c 1 -i 37 -a 1 -x {0.0 4.0 0 ------- null}
- -t 10.6716390228388 -s 3 -d 4 -p exp -e 1040 -c 1 -i 37 -a 1 -x {0.0 4.0 0 ------- null}
h -t 10.6716390228388 -s 3 -d 4 -p exp -e 1040 -c 1 -i 37 -a 1 -x {0.0 4.0 -1 ------- null}
r -t 10.6718386284402 -s 3 -d 4 -p exp -e 1040 -c 1 -i 35 -a 1 -x {0.0 4.0 0 ------- null}
+ -t 10.6718386284402 -s 4 -d 3 -p ack -e 40 -c 1 -i 38 -a 1 -x {4.0 0.0 18 ------- null}
- -t 10.6718386284402 -s 4 -d 3 -p ack -e 40 -c 1 -i 38 -a 1 -x {4.0 0.0 18 ------- null}
h -t 10.6718386284402 -s 4 -d 3 -p ack -e 40 -c 1 -i 38 -a 1 -x {4.0 0.0 -1 ------- null}
+ -t 10.6915981706834 -s 0 -d 3 -p exp -e 1040 -c 1 -i 39 -a 1 -x {0.0 4.0 0 ------- null}
- -t 10.6915981706834 -s 0 -d 3 -p exp -e 1040 -c 1 -i 39 -a 1 -x {0.0 4.0 0 ------- null}
h -t 10.6915981706834 -s 0 -d 3 -p exp -e 1040 -c 1 -i 39 -a 1 -x {0.0 4.0 -1 ------- null}
r -t 10.6924786284402 -s 4 -d 3 -p ack -e 40 -c 1 -i 38 -a 1 -x {4.0 0.0 18 ------- null}
+ -t 10.6924786284402 -s 3 -d 0 -p ack -e 40 -c 1 -i 38 -a 1 -x {4.0 0.0 18 ------- null}
- -t 10.6924786284402 -s 3 -d 0 -p ack -e 40 -c 1 -i 38 -a 1 -x {4.0 0.0 18 ------- null}
h -t 10.6924786284402 -s 3 -d 0 -p ack -e 40 -c 1 -i 38 -a 1 -x {4.0 0.0 -1 ------- null}
r -t 10.7026386284402 -s 3 -d 0 -p ack -e 40 -c 1 -i 38 -a 1 -x {4.0 0.0 18 ------- null}
r -t 10.7057581706834 -s 0 -d 3 -p exp -e 1040 -c 1 -i 39 -a 1 -x {0.0 4.0 0 ------- null}
+ -t 10.7057581706834 -s 3 -d 4 -p exp -e 1040 -c 1 -i 39 -a 1 -x {0.0 4.0 0 ------- null}
- -t 10.7057581706834 -s 3 -d 4 -p exp -e 1040 -c 1 -i 39 -a 1 -x {0.0 4.0 0 ------- null}
h -t 10.7057581706834 -s 3 -d 4 -p exp -e 1040 -c 1 -i 39 -a 1 -x {0.0 4.0 -1 ------- null}
r -t 10.7082790228388 -s 3 -d 4 -p exp -e 1040 -c 1 -i 37 -a 1 -x {0.0 4.0 0 ------- null}
+ -t 10.7082790228388 -s 4 -d 3 -p ack -e 40 -c 1 -i 40 -a 1 -x {4.0 0.0 19 ------- null}
- -t 10.7082790228388 -s 4 -d 3 -p ack -e 40 -c 1 -i 40 -a 1 -x {4.0 0.0 19 ------- null}
h -t 10.7082790228388 -s 4 -d 3 -p ack -e 40 -c 1 -i 40 -a 1 -x {4.0 0.0 -1 ------- null}
+ -t 10.7272929005313 -s 0 -d 3 -p exp -e 1040 -c 1 -i 41 -a 1 -x {0.0 4.0 0 ------- null}
- -t 10.7272929005313 -s 0 -d 3 -p exp -e 1040 -c 1 -i 41 -a 1 -x {0.0 4.0 0 ------- null}